# vtk DataFile Version 2.0
3D Unstructured Grid of Linear Triangles
ASCII
DATASET UNSTRUCTURED_GRID
FIELD FieldData  1
TIME 1 1 double
           0.01000
POINTS      256 float
      0.00000000E+00  1.50000000E+00  1.00000007E+00
      5.00000000E-01  1.50000000E+00  1.00000007E+00
      1.00000000E+00  1.50000000E+00  1.00000007E+00
      1.50000000E+00  1.50000000E+00  1.00000007E+00
      0.00000000E+00  1.00000000E+00  1.00000007E+00
      5.00000000E-01  1.00000000E+00  1.00000004E+00
      1.00000000E+00  1.00000000E+00  1.00000003E+00
      1.50000000E+00  1.00000000E+00  1.00000004E+00
      0.00000000E+00  5.00000000E-01  1.00000007E+00
      5.00000000E-01  5.00000000E-01  1.00000003E+00
      1.00000000E+00  5.00000000E-01  9.99666667E-01
      1.50000000E+00  5.00000000E-01  9.99666667E-01
      0.00000000E+00  0.00000000E+00  1.00000007E+00
      5.00000000E-01  0.00000000E+00  1.00000004E+00
      1.00000000E+00  0.00000000E+00  9.99666667E-01
      1.50000000E+00  0.00000000E+00  9.99000000E-01
      0.00000000E+00  1.50000000E+00  9.94000065E-01
      5.00000000E-01  1.50000000E+00  9.94000065E-01
      1.00000000E+00  1.50000000E+00  9.94000065E-01
      1.50000000E+00  1.50000000E+00  9.94000065E-01
      0.00000000E+00  1.00000000E+00  9.94000065E-01
      5.00000000E-01  1.00000000E+00  9.94000043E-01
      1.00000000E+00  1.00000000E+00  9.94000033E-01
      1.50000000E+00  1.00000000E+00  9.94000043E-01
      0.00000000E+00  5.00000000E-01  9.94000065E-01
      5.00000000E-01  5.00000000E-01  9.94000033E-01
      1.00000000E+00  5.00000000E-01  9.93666667E-01
      1.50000000E+00  5.00000000E-01  9.93666667E-01
      0.00000000E+00  0.00000000E+00  9.94000065E-01
      5.00000000E-01  0.00000000E+00  9.94000043E-01
      1.00000000E+00  0.00000000E+00  9.93666667E-01
      1.50000000E+00  0.00000000E+00  9.93000000E-01
      0.00000000E+00  1.50000000E+00  9.82000065E-01
      5.00000000E-01  1.50000000E+00  9.82000065E-01
      1.00000000E+00  1.50000000E+00  9.82000065E-01
      1.50000000E+00  1.50000000E+00  9.82000065E-01
      0.00000000E+00  1.00000000E+00  9.82000065E-01
      5.00000000E-01  1.00000000E+00  9.82000043E-01
      1.00000000E+00  1.00000000E+00  9.82000033E-01
      1.50000000E+00  1.00000000E+00  9.82000043E-01
      0.00000000E+00  5.00000000E-01  9.82000065E-01
      5.00000000E-01  5.00000000E-01  9.82000033E-01
      1.00000000E+00  5.00000000E-01  9.81666667E-01
      1.50000000E+00  5.00000000E-01  9.81666667E-01
      0.00000000E+00  0.00000000E+00  9.82000065E-01
      5.00000000E-01  0.00000000E+00  9.82000043E-01
      1.00000000E+00  0.00000000E+00  9.81666667E-01
      1.50000000E+00  0.00000000E+00  9.81000000E-01
      0.00000000E+00  1.50000000E+00  9.64000065E-01
      5.00000000E-01  1.50000000E+00  9.64000065E-01
      1.00000000E+00  1.50000000E+00  9.64000065E-01
      1.50000000E+00  1.50000000E+00  9.64000065E-01
      0.00000000E+00  1.00000000E+00  9.64000065E-01
      5.00000000E-01  1.00000000E+00  9.64000043E-01
      1.00000000E+00  1.00000000E+00  9.64000032E-01
      1.50000000E+00  1.00000000E+00  9.64000043E-01
      0.00000000E+00  5.00000000E-01  9.64000065E-01
      5.00000000E-01  5.00000000E-01  9.64000032E-01
      1.00000000E+00  5.00000000E-01  9.63666667E-01
      1.50000000E+00  5.00000000E-01  9.63666667E-01
      0.00000000E+00  0.00000000E+00  9.64000065E-01
      5.00000000E-01  0.00000000E+00  9.64000043E-01
      1.00000000E+00  0.00000000E+00  9.63666667E-01
      1.50000000E+00  0.00000000E+00  9.63000000E-01
      0.00000000E+00  1.50000000E+00  9.40000065E-01
      5.00000000E-01  1.50000000E+00  9.40000065E-01
      1.00000000E+00  1.50000000E+00  9.40000065E-01
      1.50000000E+00  1.50000000E+00  9.40000065E-01
      0.00000000E+00  1.00000000E+00  9.40000065E-01
      5.00000000E-01  1.00000000E+00  9.40000043E-01
      1.00000000E+00  1.00000000E+00  9.40000032E-01
      1.50000000E+00  1.00000000E+00  9.40000043E-01
      0.00000000E+00  5.00000000E-01  9.40000065E-01
      5.00000000E-01  5.00000000E-01  9.40000032E-01
      1.00000000E+00  5.00000000E-01  9.39666667E-01
      1.50000000E+00  5.00000000E-01  9.39666667E-01
      0.00000000E+00  0.00000000E+00  9.40000065E-01
      5.00000000E-01  0.00000000E+00  9.40000043E-01
      1.00000000E+00  0.00000000E+00  9.39666667E-01
      1.50000000E+00  0.00000000E+00  9.39000000E-01
      0.00000000E+00  1.50000000E+00  9.10000065E-01
      5.00000000E-01  1.50000000E+00  9.10000065E-01
      1.00000000E+00  1.50000000E+00  9.10000065E-01
      1.50000000E+00  1.50000000E+00  9.10000065E-01
      0.00000000E+00  1.00000000E+00  9.10000065E-01
      5.00000000E-01  1.00000000E+00  9.10000043E-01
      1.00000000E+00  1.00000000E+00  9.10000033E-01
      1.50000000E+00  1.00000000E+00  9.10000043E-01
      0.00000000E+00  5.00000000E-01  9.10000065E-01
      5.00000000E-01  5.00000000E-01  9.10000033E-01
      1.00000000E+00  5.00000000E-01  9.09666667E-01
      1.50000000E+00  5.00000000E-01  9.09666667E-01
      0.00000000E+00  0.00000000E+00  9.10000065E-01
      5.00000000E-01  0.00000000E+00  9.10000043E-01
      1.00000000E+00  0.00000000E+00  9.09666667E-01
      1.50000000E+00  0.00000000E+00  9.09000000E-01
      0.00000000E+00  1.50000000E+00  8.80000065E-01
      5.00000000E-01  1.50000000E+00  8.80000065E-01
      1.00000000E+00  1.50000000E+00  8.80000065E-01
      1.50000000E+00  1.50000000E+00  8.80000065E-01
      0.00000000E+00  1.00000000E+00  8.80000065E-01
      5.00000000E-01  1.00000000E+00  8.80000043E-01
      1.00000000E+00  1.00000000E+00  8.80000033E-01
      1.50000000E+00  1.00000000E+00  8.80000043E-01
      0.00000000E+00  5.00000000E-01  8.80000065E-01
      5.00000000E-01  5.00000000E-01  8.80000033E-01
      1.00000000E+00  5.00000000E-01  8.79666667E-01
      1.50000000E+00  5.00000000E-01  8.79666667E-01
      0.00000000E+00  0.00000000E+00  8.80000065E-01
      5.00000000E-01  0.00000000E+00  8.80000043E-01
      1.00000000E+00  0.00000000E+00  8.79666667E-01
      1.50000000E+00  0.00000000E+00  8.79000000E-01
      0.00000000E+00  1.50000000E+00  8.20000065E-01
      5.00000000E-01  1.50000000E+00  8.20000065E-01
      1.00000000E+00  1.50000000E+00  8.20000065E-01
      1.50000000E+00  1.50000000E+00  8.20000065E-01
      0.00000000E+00  1.00000000E+00  8.20000065E-01
      5.00000000E-01  1.00000000E+00  8.20000043E-01
      1.00000000E+00  1.00000000E+00  8.20000033E-01
      1.50000000E+00  1.00000000E+00  8.20000043E-01
      0.00000000E+00  5.00000000E-01  8.20000065E-01
      5.00000000E-01  5.00000000E-01  8.20000033E-01
      1.00000000E+00  5.00000000E-01  8.19666667E-01
      1.50000000E+00  5.00000000E-01  8.19666667E-01
      0.00000000E+00  0.00000000E+00  8.20000065E-01
      5.00000000E-01  0.00000000E+00  8.20000043E-01
      1.00000000E+00  0.00000000E+00  8.19666667E-01
      1.50000000E+00  0.00000000E+00  8.19000000E-01
      0.00000000E+00  1.50000000E+00  7.60000065E-01
      5.00000000E-01  1.50000000E+00  7.60000065E-01
      1.00000000E+00  1.50000000E+00  7.60000065E-01
      1.50000000E+00  1.50000000E+00  7.60000065E-01
      0.00000000E+00  1.00000000E+00  7.60000065E-01
      5.00000000E-01  1.00000000E+00  7.60000043E-01
      1.00000000E+00  1.00000000E+00  7.60000033E-01
      1.50000000E+00  1.00000000E+00  7.60000043E-01
      0.00000000E+00  5.00000000E-01  7.60000065E-01
      5.00000000E-01  5.00000000E-01  7.60000033E-01
      1.00000000E+00  5.00000000E-01  7.59666667E-01
      1.50000000E+00  5.00000000E-01  7.59666667E-01
      0.00000000E+00  0.00000000E+00  7.60000065E-01
      5.00000000E-01  0.00000000E+00  7.60000043E-01
      1.00000000E+00  0.00000000E+00  7.59666667E-01
      1.50000000E+00  0.00000000E+00  7.59000000E-01
      0.00000000E+00  1.50000000E+00  6.10000065E-01
      5.00000000E-01  1.50000000E+00  6.10000065E-01
      1.00000000E+00  1.50000000E+00  6.10000065E-01
      1.50000000E+00  1.50000000E+00  6.10000065E-01
      0.00000000E+00  1.00000000E+00  6.10000065E-01
      5.00000000E-01  1.00000000E+00  6.10000043E-01
      1.00000000E+00  1.00000000E+00  6.10000033E-01
      1.50000000E+00  1.00000000E+00  6.10000043E-01
      0.00000000E+00  5.00000000E-01  6.10000065E-01
      5.00000000E-01  5.00000000E-01  6.10000033E-01
      1.00000000E+00  5.00000000E-01  6.09666667E-01
      1.50000000E+00  5.00000000E-01  6.09666667E-01
      0.00000000E+00  0.00000000E+00  6.10000065E-01
      5.00000000E-01  0.00000000E+00  6.10000043E-01
      1.00000000E+00  0.00000000E+00  6.09666667E-01
      1.50000000E+00  0.00000000E+00  6.09000000E-01
      0.00000000E+00  1.50000000E+00  4.60000065E-01
      5.00000000E-01  1.50000000E+00  4.60000065E-01
      1.00000000E+00  1.50000000E+00  4.60000065E-01
      1.50000000E+00  1.50000000E+00  4.60000065E-01
      0.00000000E+00  1.00000000E+00  4.60000065E-01
      5.00000000E-01  1.00000000E+00  4.60000043E-01
      1.00000000E+00  1.00000000E+00  4.60000032E-01
      1.50000000E+00  1.00000000E+00  4.60000043E-01
      0.00000000E+00  5.00000000E-01  4.60000065E-01
      5.00000000E-01  5.00000000E-01  4.60000032E-01
      1.00000000E+00  5.00000000E-01  4.59666667E-01
      1.50000000E+00  5.00000000E-01  4.59666667E-01
      0.00000000E+00  0.00000000E+00  4.60000065E-01
      5.00000000E-01  0.00000000E+00  4.60000043E-01
      1.00000000E+00  0.00000000E+00  4.59666667E-01
      1.50000000E+00  0.00000000E+00  4.59000000E-01
      0.00000000E+00  1.50000000E+00  1.60000065E-01
      5.00000000E-01  1.50000000E+00  1.60000065E-01
      1.00000000E+00  1.50000000E+00  1.60000065E-01
      1.50000000E+00  1.50000000E+00  1.60000065E-01
      0.00000000E+00  1.00000000E+00  1.60000065E-01
      5.00000000E-01  1.00000000E+00  1.60000043E-01
      1.00000000E+00  1.00000000E+00  1.60000032E-01
      1.50000000E+00  1.00000000E+00  1.60000043E-01
      0.00000000E+00  5.00000000E-01  1.60000065E-01
[...]
POINT_DATA      256
SCALARS pressure float
LOOKUP_TABLE default
   9.9595985771472601E-009
   9.9307989344055636E-009
   9.8448148025740044E-009
   9.7773590438567975E-009
   9.9307989343901284E-009
   9.8681675879634334E-009
   9.4347159281157551E-009
   9.3062602682828672E-009
   9.8448148025972598E-009
   9.4347159281182565E-009
   1.1025400362438919E-008
   9.9298905432903204E-009
   9.7773590438691755E-009
   9.3062602682643086E-009
   9.9298905432586923E-009
   1.3826959484029765E-008
   5.9998810194094995E-003
   5.9997890801408082E-003
   5.9995145783181781E-003
   5.9992992284579796E-003
   5.9997890801419453E-003
   5.9995882369126372E-003
   5.9982279972963263E-003
   5.9978263486621438E-003
   5.9995145783169213E-003
   5.9982279972957790E-003
   6.0032302773513147E-003
   5.9998128847691201E-003
   5.9992992284613501E-003
   5.9978263486621585E-003
   5.9998128847690959E-003
   6.0120249896433234E-003
   1.7999623187903942E-002
   1.7999347533388561E-002
   1.7998524914329329E-002
   1.7997879632059344E-002
   1.7999347533390508E-002
   1.7998745756804116E-002
   1.7994804992241924E-002
   1.7993617026971994E-002
   1.7998524914326745E-002
   1.7994804992240279E-002
   1.8009390123767840E-002
   1.7999571228681704E-002
   1.7997879632065030E-002
   1.7993617026970561E-002
   1.7999571228682520E-002
   1.8035113134066288E-002
   3.5999236787174337E-002
   3.5998686236648578E-002
   3.5997046367561097E-002
   3.5995760047348287E-002
   3.5998686236650715E-002
   3.5997487500817493E-002
   3.5990000355180025E-002
   3.5987662922527648E-002
   3.5997046367558842E-002
   3.5990000355178194E-002
   3.6017976600157139E-002
   3.5999537865713305E-002
   3.5995760047354393E-002
   3.5987662922527738E-002
   3.5999537865714054E-002
   3.6067619701721579E-002
   5.9998722857458400E-002
   5.9997808165516447E-002
   5.9995095292398652E-002
   5.9992966599155123E-002
   5.9997808165517301E-002
   5.9995828544571736E-002
   5.9984158529070526E-002
   5.9980341873978694E-002
   5.9995095292396917E-002
   5.9984158529069805E-002
   6.0028317442013673E-002
   6.0000004952659884E-002
   5.9992966599153624E-002
   5.9980341873980041E-002
   6.0000004952660238E-002
   6.0107363133200607E-002
   8.9998083809945159E-002
   8.9996720061468527E-002
   8.9992705357267777E-002
   8.9989552036433995E-002
   8.9996720061469873E-002
   8.9993799815847805E-002
   8.9977664276644845E-002
   8.9972089566464353E-002
   8.9992705357265057E-002
   8.9977664276645025E-002
   9.0039676347551265E-002
   9.0001233564598188E-002
   8.9989552036435258E-002
   8.9972089566464269E-002
   9.0001233564599076E-002
   9.0151892153546354E-002
  0.11999745031766326     
  0.11999564698077676     
  0.11999038592972318     
  0.11998624222963518     
  0.11999564698077800     
  0.11999183671556370     
  0.11997194798102639     
  0.11996469584782701     
  0.11999038592972254     
  0.11997194798102695     
  0.12004954966506821     
  0.12000295682415266     
  0.11998624222963221     
  0.11996469584782773     
  0.12000295682415425     
  0.12019157398519618     
  0.17999620475438144     
  0.17999356121267895     
  0.17998601257684782     
  0.17998008214209685     
  0.17999356121267893     
  0.17998814075300668     
  0.17996253910073337     
  0.17995247091778402     
  0.17998601257684735     
  0.17996253910073301     
  0.18006549322530488     
  0.18000764622544657     
  0.17998008214209391     
  0.17995247091778468     
  0.18000764622544718     
  0.18025693783198823     
  0.23999500071717589     
  0.23999157951518388     
  0.23998202504957555     
  0.23997447819473117     
  0.23999157951518488     
  0.23998479928092531     
  0.23995516948059206     
  0.23994265450810745     
  0.23998202504957489     
  0.23995516948059228     
  0.24007772483901418     
  0.24001282905796761     
  0.23997447819472989     
  0.23994265450810739     
  0.24001282905796900     
  0.24030918547148736     
  0.38999221578373572     
  0.38998720884457394     
  0.38997404496233679     
  0.38996398620176026     
  0.38998720884457461     
  0.38997805112321776     
  0.38994349898518360     
  0.38992770469283633     
  0.38997404496233617     
  0.38994349898518416     
  0.39009644051154796     
  0.39002657230797577     
  0.38996398620175998     
  0.38992770469283583     
  0.39002657230797627     
  0.39039126413670067     
  0.53998985110221165     
  0.53998369373211330     
  0.53996818321863038     
  0.53995627003839186     
  0.53998369373211319     
  0.53997324717599249     
  0.53993686645404437     
  0.53991910183262393     
  0.53996818321862994     
  0.53993686645404460     
  0.54010680734632455     
  0.54003701673440807     
  0.53995627003839164     
  0.53991910183262370     
  0.54003701673440863     
  0.54043861008692617     
  0.83998651847378891     
  0.83997935697357484     
  0.83996237068167756     
  0.83995003018944747     
  0.83997935697357473     
  0.83996803474514059     
  0.83993156655759116     
  0.83991351990930851     
  0.83996237068167734     
  0.83993156655759094     
  0.84011533835133789     
  0.84004990198522544     
  0.83995003018944714     
  0.83991351990930829     
  0.84004990198522556     
  0.84047842893902125     
   1.1399844663434529     
   1.1399768424444239     
   1.1399590739905114     
   1.1399459953933073     
   1.1399768424444241     
   1.1399656189332710     
   1.1399296237376841     
   1.1399113223359985     
   1.1399590739905114     
   1.1399296237376839     
   1.1401184963939970     
   1.1400543947992130     
   1.1399459953933073     
   1.1399113223359985     
   1.1400543947992130     
   1.1404900598163934     
   1.7399837280996306     
   1.7399762789058886     
   1.7399594151222360     
   1.7399476006399894     
   1.7399762789058884     
   1.7399648950438718     
   1.7399297479966287     
   1.7399126473947102     
   1.7399594151222353     
   1.7399297479966285     
   1.7401213501631183     
   1.7400605733966636     
   1.7399476006399888     
   1.7399126473947089     
   1.7400605733966636     
   1.7405028039579407     
   2.3399840114146113     
   2.3399766969277200     
   2.3399603044583714     
   2.3399489197431227     
   2.3399766969277196     
   2.3399653563993223     
   2.3399307045573008     
   2.3399141716615008     
   2.3399603044583719     
   2.3399307045573017     
   2.3401233345593209     
   2.3400638570965286     
   2.3399489197431236     
   2.3399141716615013     
   2.3400638570965309     
   2.3405087757072236     
   2.9999857200813143     
   2.9999790894312870     
   2.9999652541085955     
   2.9999577338390107     
   2.9999790894312870     
   2.9999667495839324     
   2.9999331141877557     
   2.9999196710621501     
   2.9999652541085968     
   2.9999331141877561     
   3.0001279978123185     
   3.0000774143148146     
   2.9999577338390115     
   2.9999196710621505     
   3.0000774143148150     
   3.0005433947523565     
