# vtk DataFile Version 2.0
3D Unstructured Grid of Linear Triangles
ASCII
DATASET UNSTRUCTURED_GRID
FIELD FieldData  1
TIME 1 1 double
        7200.00000
POINTS      256 float
      0.00000000E+00  1.50000000E+00  1.00000007E+00
      5.00000000E-01  1.50000000E+00  1.00000007E+00
      1.00000000E+00  1.50000000E+00  1.00000007E+00
      1.50000000E+00  1.50000000E+00  1.00000007E+00
      0.00000000E+00  1.00000000E+00  1.00000007E+00
      5.00000000E-01  1.00000000E+00  1.00000004E+00
      1.00000000E+00  1.00000000E+00  1.00000003E+00
      1.50000000E+00  1.00000000E+00  1.00000004E+00
      0.00000000E+00  5.00000000E-01  1.00000007E+00
      5.00000000E-01  5.00000000E-01  1.00000003E+00
      1.00000000E+00  5.00000000E-01  9.99666667E-01
      1.50000000E+00  5.00000000E-01  9.99666667E-01
      0.00000000E+00  0.00000000E+00  1.00000007E+00
      5.00000000E-01  0.00000000E+00  1.00000004E+00
      1.00000000E+00  0.00000000E+00  9.99666667E-01
      1.50000000E+00  0.00000000E+00  9.99000000E-01
      0.00000000E+00  1.50000000E+00  9.94000065E-01
      5.00000000E-01  1.50000000E+00  9.94000065E-01
      1.00000000E+00  1.50000000E+00  9.94000065E-01
      1.50000000E+00  1.50000000E+00  9.94000065E-01
      0.00000000E+00  1.00000000E+00  9.94000065E-01
      5.00000000E-01  1.00000000E+00  9.94000043E-01
      1.00000000E+00  1.00000000E+00  9.94000033E-01
      1.50000000E+00  1.00000000E+00  9.94000043E-01
      0.00000000E+00  5.00000000E-01  9.94000065E-01
      5.00000000E-01  5.00000000E-01  9.94000033E-01
      1.00000000E+00  5.00000000E-01  9.93666667E-01
      1.50000000E+00  5.00000000E-01  9.93666667E-01
      0.00000000E+00  0.00000000E+00  9.94000065E-01
      5.00000000E-01  0.00000000E+00  9.94000043E-01
      1.00000000E+00  0.00000000E+00  9.93666667E-01
      1.50000000E+00  0.00000000E+00  9.93000000E-01
      0.00000000E+00  1.50000000E+00  9.82000065E-01
      5.00000000E-01  1.50000000E+00  9.82000065E-01
      1.00000000E+00  1.50000000E+00  9.82000065E-01
      1.50000000E+00  1.50000000E+00  9.82000065E-01
      0.00000000E+00  1.00000000E+00  9.82000065E-01
      5.00000000E-01  1.00000000E+00  9.82000043E-01
      1.00000000E+00  1.00000000E+00  9.82000033E-01
      1.50000000E+00  1.00000000E+00  9.82000043E-01
      0.00000000E+00  5.00000000E-01  9.82000065E-01
      5.00000000E-01  5.00000000E-01  9.82000033E-01
      1.00000000E+00  5.00000000E-01  9.81666667E-01
      1.50000000E+00  5.00000000E-01  9.81666667E-01
      0.00000000E+00  0.00000000E+00  9.82000065E-01
      5.00000000E-01  0.00000000E+00  9.82000043E-01
      1.00000000E+00  0.00000000E+00  9.81666667E-01
      1.50000000E+00  0.00000000E+00  9.81000000E-01
      0.00000000E+00  1.50000000E+00  9.64000065E-01
      5.00000000E-01  1.50000000E+00  9.64000065E-01
      1.00000000E+00  1.50000000E+00  9.64000065E-01
      1.50000000E+00  1.50000000E+00  9.64000065E-01
      0.00000000E+00  1.00000000E+00  9.64000065E-01
      5.00000000E-01  1.00000000E+00  9.64000043E-01
      1.00000000E+00  1.00000000E+00  9.64000032E-01
      1.50000000E+00  1.00000000E+00  9.64000043E-01
      0.00000000E+00  5.00000000E-01  9.64000065E-01
      5.00000000E-01  5.00000000E-01  9.64000032E-01
      1.00000000E+00  5.00000000E-01  9.63666667E-01
      1.50000000E+00  5.00000000E-01  9.63666667E-01
      0.00000000E+00  0.00000000E+00  9.64000065E-01
      5.00000000E-01  0.00000000E+00  9.64000043E-01
      1.00000000E+00  0.00000000E+00  9.63666667E-01
      1.50000000E+00  0.00000000E+00  9.63000000E-01
      0.00000000E+00  1.50000000E+00  9.40000065E-01
      5.00000000E-01  1.50000000E+00  9.40000065E-01
      1.00000000E+00  1.50000000E+00  9.40000065E-01
      1.50000000E+00  1.50000000E+00  9.40000065E-01
      0.00000000E+00  1.00000000E+00  9.40000065E-01
      5.00000000E-01  1.00000000E+00  9.40000043E-01
      1.00000000E+00  1.00000000E+00  9.40000032E-01
      1.50000000E+00  1.00000000E+00  9.40000043E-01
      0.00000000E+00  5.00000000E-01  9.40000065E-01
      5.00000000E-01  5.00000000E-01  9.40000032E-01
      1.00000000E+00  5.00000000E-01  9.39666667E-01
      1.50000000E+00  5.00000000E-01  9.39666667E-01
      0.00000000E+00  0.00000000E+00  9.40000065E-01
      5.00000000E-01  0.00000000E+00  9.40000043E-01
      1.00000000E+00  0.00000000E+00  9.39666667E-01
      1.50000000E+00  0.00000000E+00  9.39000000E-01
      0.00000000E+00  1.50000000E+00  9.10000065E-01
      5.00000000E-01  1.50000000E+00  9.10000065E-01
      1.00000000E+00  1.50000000E+00  9.10000065E-01
      1.50000000E+00  1.50000000E+00  9.10000065E-01
      0.00000000E+00  1.00000000E+00  9.10000065E-01
      5.00000000E-01  1.00000000E+00  9.10000043E-01
      1.00000000E+00  1.00000000E+00  9.10000033E-01
      1.50000000E+00  1.00000000E+00  9.10000043E-01
      0.00000000E+00  5.00000000E-01  9.10000065E-01
      5.00000000E-01  5.00000000E-01  9.10000033E-01
      1.00000000E+00  5.00000000E-01  9.09666667E-01
      1.50000000E+00  5.00000000E-01  9.09666667E-01
      0.00000000E+00  0.00000000E+00  9.10000065E-01
      5.00000000E-01  0.00000000E+00  9.10000043E-01
      1.00000000E+00  0.00000000E+00  9.09666667E-01
      1.50000000E+00  0.00000000E+00  9.09000000E-01
      0.00000000E+00  1.50000000E+00  8.80000065E-01
      5.00000000E-01  1.50000000E+00  8.80000065E-01
      1.00000000E+00  1.50000000E+00  8.80000065E-01
      1.50000000E+00  1.50000000E+00  8.80000065E-01
      0.00000000E+00  1.00000000E+00  8.80000065E-01
      5.00000000E-01  1.00000000E+00  8.80000043E-01
      1.00000000E+00  1.00000000E+00  8.80000033E-01
      1.50000000E+00  1.00000000E+00  8.80000043E-01
      0.00000000E+00  5.00000000E-01  8.80000065E-01
      5.00000000E-01  5.00000000E-01  8.80000033E-01
      1.00000000E+00  5.00000000E-01  8.79666667E-01
      1.50000000E+00  5.00000000E-01  8.79666667E-01
      0.00000000E+00  0.00000000E+00  8.80000065E-01
      5.00000000E-01  0.00000000E+00  8.80000043E-01
      1.00000000E+00  0.00000000E+00  8.79666667E-01
      1.50000000E+00  0.00000000E+00  8.79000000E-01
      0.00000000E+00  1.50000000E+00  8.20000065E-01
      5.00000000E-01  1.50000000E+00  8.20000065E-01
      1.00000000E+00  1.50000000E+00  8.20000065E-01
      1.50000000E+00  1.50000000E+00  8.20000065E-01
      0.00000000E+00  1.00000000E+00  8.20000065E-01
      5.00000000E-01  1.00000000E+00  8.20000043E-01
      1.00000000E+00  1.00000000E+00  8.20000033E-01
      1.50000000E+00  1.00000000E+00  8.20000043E-01
      0.00000000E+00  5.00000000E-01  8.20000065E-01
      5.00000000E-01  5.00000000E-01  8.20000033E-01
      1.00000000E+00  5.00000000E-01  8.19666667E-01
      1.50000000E+00  5.00000000E-01  8.19666667E-01
      0.00000000E+00  0.00000000E+00  8.20000065E-01
      5.00000000E-01  0.00000000E+00  8.20000043E-01
      1.00000000E+00  0.00000000E+00  8.19666667E-01
      1.50000000E+00  0.00000000E+00  8.19000000E-01
      0.00000000E+00  1.50000000E+00  7.60000065E-01
      5.00000000E-01  1.50000000E+00  7.60000065E-01
      1.00000000E+00  1.50000000E+00  7.60000065E-01
      1.50000000E+00  1.50000000E+00  7.60000065E-01
      0.00000000E+00  1.00000000E+00  7.60000065E-01
      5.00000000E-01  1.00000000E+00  7.60000043E-01
      1.00000000E+00  1.00000000E+00  7.60000033E-01
      1.50000000E+00  1.00000000E+00  7.60000043E-01
      0.00000000E+00  5.00000000E-01  7.60000065E-01
      5.00000000E-01  5.00000000E-01  7.60000033E-01
      1.00000000E+00  5.00000000E-01  7.59666667E-01
      1.50000000E+00  5.00000000E-01  7.59666667E-01
      0.00000000E+00  0.00000000E+00  7.60000065E-01
      5.00000000E-01  0.00000000E+00  7.60000043E-01
      1.00000000E+00  0.00000000E+00  7.59666667E-01
      1.50000000E+00  0.00000000E+00  7.59000000E-01
      0.00000000E+00  1.50000000E+00  6.10000065E-01
      5.00000000E-01  1.50000000E+00  6.10000065E-01
      1.00000000E+00  1.50000000E+00  6.10000065E-01
      1.50000000E+00  1.50000000E+00  6.10000065E-01
      0.00000000E+00  1.00000000E+00  6.10000065E-01
      5.00000000E-01  1.00000000E+00  6.10000043E-01
      1.00000000E+00  1.00000000E+00  6.10000033E-01
      1.50000000E+00  1.00000000E+00  6.10000043E-01
      0.00000000E+00  5.00000000E-01  6.10000065E-01
      5.00000000E-01  5.00000000E-01  6.10000033E-01
      1.00000000E+00  5.00000000E-01  6.09666667E-01
      1.50000000E+00  5.00000000E-01  6.09666667E-01
      0.00000000E+00  0.00000000E+00  6.10000065E-01
      5.00000000E-01  0.00000000E+00  6.10000043E-01
      1.00000000E+00  0.00000000E+00  6.09666667E-01
      1.50000000E+00  0.00000000E+00  6.09000000E-01
      0.00000000E+00  1.50000000E+00  4.60000065E-01
      5.00000000E-01  1.50000000E+00  4.60000065E-01
      1.00000000E+00  1.50000000E+00  4.60000065E-01
      1.50000000E+00  1.50000000E+00  4.60000065E-01
      0.00000000E+00  1.00000000E+00  4.60000065E-01
      5.00000000E-01  1.00000000E+00  4.60000043E-01
      1.00000000E+00  1.00000000E+00  4.60000032E-01
      1.50000000E+00  1.00000000E+00  4.60000043E-01
      0.00000000E+00  5.00000000E-01  4.60000065E-01
      5.00000000E-01  5.00000000E-01  4.60000032E-01
      1.00000000E+00  5.00000000E-01  4.59666667E-01
      1.50000000E+00  5.00000000E-01  4.59666667E-01
      0.00000000E+00  0.00000000E+00  4.60000065E-01
      5.00000000E-01  0.00000000E+00  4.60000043E-01
      1.00000000E+00  0.00000000E+00  4.59666667E-01
      1.50000000E+00  0.00000000E+00  4.59000000E-01
      0.00000000E+00  1.50000000E+00  1.60000065E-01
      5.00000000E-01  1.50000000E+00  1.60000065E-01
      1.00000000E+00  1.50000000E+00  1.60000065E-01
      1.50000000E+00  1.50000000E+00  1.60000065E-01
      0.00000000E+00  1.00000000E+00  1.60000065E-01
      5.00000000E-01  1.00000000E+00  1.60000043E-01
      1.00000000E+00  1.00000000E+00  1.60000032E-01
      1.50000000E+00  1.00000000E+00  1.60000043E-01
      0.00000000E+00  5.00000000E-01  1.60000065E-01
[...]
POINT_DATA      256
SCALARS pressure float
LOOKUP_TABLE default
   4.0346088657514144E-003
   2.9618372448487825E-003
   8.0633093033364127E-003
   1.0884082560749346E-002
   3.7272464924102749E-003
   2.9790339899821027E-003
   3.1621194186376308E-003
   7.4740258566311666E-003
   3.3389700807550959E-003
   2.4419231474770652E-003
   1.8634087963206557E-003
   1.3609947607470681E-003
   3.2213963175757696E-003
   2.5436367693774707E-003
   1.7137209149377462E-003
   2.7618221962926459E-003
   1.0022082836545378E-002
   8.9873173279801863E-003
   1.3978570315207344E-002
   1.6742493900478349E-002
   9.7174480069100386E-003
   8.9864323198806991E-003
   9.1895378384765410E-003
   1.3394525928073185E-002
   9.3311617110213713E-003
   8.4511877557816254E-003
   7.8890988446559587E-003
   7.4114548532320627E-003
   9.2127883318411773E-003
   8.5459942131198754E-003
   7.7367432935780411E-003
   8.7694217667057747E-003
   2.1998998177987391E-002
   2.1034332978823910E-002
   2.5813496077896556E-002
   2.8467982887665725E-002
   2.1698767047718604E-002
   2.1000642147601410E-002
   2.1239745752894799E-002
   2.5240488514350061E-002
   2.1315612371968377E-002
   2.0468760372736025E-002
   1.9938904987005818E-002
   1.9507524087189400E-002
   2.1195619004405232E-002
   2.0550140727435166E-002
   1.9781172344454274E-002
   2.0785232814316552E-002
   3.9966283715860140E-002
   3.9099139490839339E-002
   4.3577905777475001E-002
   4.6075397851836265E-002
   3.9672337193962785E-002
   3.9021482831165244E-002
   3.9307822693720976E-002
   4.3021345920120066E-002
   3.9293852367893463E-002
   3.8494475877917315E-002
   3.8011550483352328E-002
   3.7643009421984508E-002
   3.9171733001613217E-002
   3.8557063527128371E-002
   3.7845818849038600E-002
   3.8810575642697201E-002
   6.3926008378754770E-002
   6.3175597216848137E-002
   6.7284806549039400E-002
   6.9585687336994495E-002
   6.3639884037311467E-002
   6.3048287144336385E-002
   6.3386363913864277E-002
   6.6749744886378526E-002
   6.3267570025461323E-002
   6.2527611007815370E-002
   6.2104552345010222E-002
   6.1809058692426568E-002
   6.3143076274172483E-002
   6.2567456103891375E-002
   6.1928513853693579E-002
   6.2846876101885121E-002
   9.3880515199975006E-002
   9.3256832457276465E-002
   9.6949336646696541E-002
   9.9023672007691244E-002
   9.3603420195391127E-002
   9.3080055320539173E-002
   9.3467347241412646E-002
   9.6440235415103798E-002
   9.3238739044503971E-002
   9.2567270811395749E-002
   9.2214641246693416E-002
   9.1995750821444025E-002
   9.3111892573940397E-002
   9.2582040712746949E-002
   9.2026634694450229E-002
   9.2895360193099366E-002
  0.12383988622767733     
  0.12332380236543877     
  0.12664476274035297     
  0.12851196090160483     
  0.12357104005054342     
  0.12310975534014001     
  0.12353220438982504     
  0.12616003692817676     
  0.12321388666503894     
  0.12260508783688230     
  0.12231800781121463     
  0.12216283972175013     
  0.12308506156644905     
  0.12259802695160339     
  0.12211947992601056     
  0.12294616440403251     
  0.18376993129018379     
  0.18342553041597090     
  0.18611680307876238     
  0.18762698417897858     
  0.18351709173621333     
  0.18316275089708917     
  0.18362121304488335     
  0.18568015094907880     
  0.18317514071269267     
  0.18267548227500002     
  0.18250513321124276     
  0.18244034917153559     
  0.18304522341482149     
  0.18263375289941389     
  0.18228923974778832     
  0.18305266036732393     
  0.24371287676363018     
  0.24349111341444035     
  0.24567772515318095     
  0.24689135156408476     
  0.24347463227628130     
  0.24320727727179198     
  0.24367213293468540     
  0.24528300019308455     
  0.24314773257364933     
  0.24273953301684606     
  0.24266815401486252     
  0.24266536044708642     
  0.24301754929572128     
  0.24267212429582677     
  0.24244164449172262     
  0.24315998577200554     
  0.39360750112759335     
  0.39356078466164895     
  0.39488528052243449     
  0.39559628661693080     
  0.39340696048893953     
  0.39328405575834635     
  0.39368518089755378     
  0.39458977569611142     
  0.39312002676815511     
  0.39287425548000821     
  0.39298037202349662     
  0.39302765960349545     
  0.39300189076504599     
  0.39277531970019280     
  0.39274988829898549     
  0.39341496551025390     
  0.54353550523672334     
  0.54355686183772045     
  0.54436407401809073     
  0.54476495757066679     
  0.54336919083198854     
  0.54332566185123332     
  0.54363842474488833     
  0.54413944822328275     
  0.54312137381245618     
  0.54297938633500353     
  0.54319513281248777     
  0.54325316844279581     
  0.54301551549880722     
  0.54287265561307996     
  0.54298456447179277     
  0.54363173160982348     
  0.84344369828377630     
  0.84348527043826071     
  0.84381104843323096     
  0.84395391432414646     
  0.84333672944125049     
  0.84334376434637048     
  0.84350794711095289     
  0.84368763234296329     
  0.84316668846158926     
  0.84311846446417538     
  0.84342434806326905     
  0.84345641292971296     
  0.84309514018295884     
  0.84303336383024741     
  0.84327977062864679     
  0.84392632231135067     
   1.1433872054602487     
   1.1434132648038688     
   1.1435421277199063     
   1.1435847744912004     
   1.1433219243381594     
   1.1433354813750154     
   1.1434129824118324     
   1.1434726560988677     
   1.1432112901814031     
   1.1431996655349284     
   1.1435340183689700     
   1.1435505619065418     
   1.1431642343143242     
   1.1431419515327617     
   1.1434469120950463     
   1.1441034109929569     
   1.7433306988308421     
   1.7433386207364743     
   1.7433660777520172     
   1.7433730217547250     
   1.7433066161671338     
   1.7433125380404626     
   1.7433321999549805     
   1.7433436704472229     
   1.7432646372667542     
   1.7432641189026441     
   1.7436012978727196     
   1.7436049319815263     
   1.7432471969039056     
   1.7432419251723410     
   1.7435712673596111     
   1.7442339458759246     
   2.3433090987137422     
   2.3433110259581631     
   2.3433172275380252     
   2.3433181577438877     
   2.3433000851950569     
   2.3433019616603676     
   2.3433069771720656     
   2.3433093465369943     
   2.3432842344682525     
   2.3432845339915760     
   2.3436195097962691     
   2.3436202959948451     
   2.3432776836878237     
   2.3432762525546762     
   2.3436091225384970     
   2.3442742769230778     
   3.0033027359183930     
   3.0033038981305489     
   3.0033063245392437     
   3.0033071462001955     
   3.0032979215451951     
   3.0032989858181347     
   3.0033011690423055     
   3.0033024911566710     
   3.0032896800492086     
   3.0032895197615046     
   3.0036235316109452     
   3.0036233989498795     
   3.0032864151539340     
   3.0032849179089114     
   3.0036179264080802     
   3.0042825722167370     
