# vtk DataFile Version 2.0
3D Unstructured Grid of Linear Triangles
ASCII
DATASET UNSTRUCTURED_GRID
FIELD FieldData  1
TIME 1 1 double
           0.00000
POINTS      256 float
      0.00000000E+00  1.50000000E+00  1.00000007E+00
      5.00000000E-01  1.50000000E+00  1.00000007E+00
      1.00000000E+00  1.50000000E+00  1.00000007E+00
      1.50000000E+00  1.50000000E+00  1.00000007E+00
      0.00000000E+00  1.00000000E+00  1.00000007E+00
      5.00000000E-01  1.00000000E+00  1.00000004E+00
      1.00000000E+00  1.00000000E+00  1.00000003E+00
      1.50000000E+00  1.00000000E+00  1.00000004E+00
      0.00000000E+00  5.00000000E-01  1.00000007E+00
      5.00000000E-01  5.00000000E-01  1.00000003E+00
      1.00000000E+00  5.00000000E-01  9.99666667E-01
      1.50000000E+00  5.00000000E-01  9.99666667E-01
      0.00000000E+00  0.00000000E+00  1.00000007E+00
      5.00000000E-01  0.00000000E+00  1.00000004E+00
      1.00000000E+00  0.00000000E+00  9.99666667E-01
      1.50000000E+00  0.00000000E+00  9.99000000E-01
      0.00000000E+00  1.50000000E+00  9.94000065E-01
      5.00000000E-01  1.50000000E+00  9.94000065E-01
      1.00000000E+00  1.50000000E+00  9.94000065E-01
      1.50000000E+00  1.50000000E+00  9.94000065E-01
      0.00000000E+00  1.00000000E+00  9.94000065E-01
      5.00000000E-01  1.00000000E+00  9.94000043E-01
      1.00000000E+00  1.00000000E+00  9.94000033E-01
      1.50000000E+00  1.00000000E+00  9.94000043E-01
      0.00000000E+00  5.00000000E-01  9.94000065E-01
      5.00000000E-01  5.00000000E-01  9.94000033E-01
      1.00000000E+00  5.00000000E-01  9.93666667E-01
      1.50000000E+00  5.00000000E-01  9.93666667E-01
      0.00000000E+00  0.00000000E+00  9.94000065E-01
      5.00000000E-01  0.00000000E+00  9.94000043E-01
      1.00000000E+00  0.00000000E+00  9.93666667E-01
      1.50000000E+00  0.00000000E+00  9.93000000E-01
      0.00000000E+00  1.50000000E+00  9.82000065E-01
      5.00000000E-01  1.50000000E+00  9.82000065E-01
      1.00000000E+00  1.50000000E+00  9.82000065E-01
      1.50000000E+00  1.50000000E+00  9.82000065E-01
      0.00000000E+00  1.00000000E+00  9.82000065E-01
      5.00000000E-01  1.00000000E+00  9.82000043E-01
      1.00000000E+00  1.00000000E+00  9.82000033E-01
      1.50000000E+00  1.00000000E+00  9.82000043E-01
      0.00000000E+00  5.00000000E-01  9.82000065E-01
      5.00000000E-01  5.00000000E-01  9.82000033E-01
      1.00000000E+00  5.00000000E-01  9.81666667E-01
      1.50000000E+00  5.00000000E-01  9.81666667E-01
      0.00000000E+00  0.00000000E+00  9.82000065E-01
      5.00000000E-01  0.00000000E+00  9.82000043E-01
      1.00000000E+00  0.00000000E+00  9.81666667E-01
      1.50000000E+00  0.00000000E+00  9.81000000E-01
      0.00000000E+00  1.50000000E+00  9.64000065E-01
      5.00000000E-01  1.50000000E+00  9.64000065E-01
      1.00000000E+00  1.50000000E+00  9.64000065E-01
      1.50000000E+00  1.50000000E+00  9.64000065E-01
      0.00000000E+00  1.00000000E+00  9.64000065E-01
      5.00000000E-01  1.00000000E+00  9.64000043E-01
      1.00000000E+00  1.00000000E+00  9.64000032E-01
      1.50000000E+00  1.00000000E+00  9.64000043E-01
      0.00000000E+00  5.00000000E-01  9.64000065E-01
      5.00000000E-01  5.00000000E-01  9.64000032E-01
      1.00000000E+00  5.00000000E-01  9.63666667E-01
      1.50000000E+00  5.00000000E-01  9.63666667E-01
      0.00000000E+00  0.00000000E+00  9.64000065E-01
      5.00000000E-01  0.00000000E+00  9.64000043E-01
      1.00000000E+00  0.00000000E+00  9.63666667E-01
      1.50000000E+00  0.00000000E+00  9.63000000E-01
      0.00000000E+00  1.50000000E+00  9.40000065E-01
      5.00000000E-01  1.50000000E+00  9.40000065E-01
      1.00000000E+00  1.50000000E+00  9.40000065E-01
      1.50000000E+00  1.50000000E+00  9.40000065E-01
      0.00000000E+00  1.00000000E+00  9.40000065E-01
      5.00000000E-01  1.00000000E+00  9.40000043E-01
      1.00000000E+00  1.00000000E+00  9.40000032E-01
      1.50000000E+00  1.00000000E+00  9.40000043E-01
      0.00000000E+00  5.00000000E-01  9.40000065E-01
      5.00000000E-01  5.00000000E-01  9.40000032E-01
      1.00000000E+00  5.00000000E-01  9.39666667E-01
      1.50000000E+00  5.00000000E-01  9.39666667E-01
      0.00000000E+00  0.00000000E+00  9.40000065E-01
      5.00000000E-01  0.00000000E+00  9.40000043E-01
      1.00000000E+00  0.00000000E+00  9.39666667E-01
      1.50000000E+00  0.00000000E+00  9.39000000E-01
      0.00000000E+00  1.50000000E+00  9.10000065E-01
      5.00000000E-01  1.50000000E+00  9.10000065E-01
      1.00000000E+00  1.50000000E+00  9.10000065E-01
      1.50000000E+00  1.50000000E+00  9.10000065E-01
      0.00000000E+00  1.00000000E+00  9.10000065E-01
      5.00000000E-01  1.00000000E+00  9.10000043E-01
      1.00000000E+00  1.00000000E+00  9.10000033E-01
      1.50000000E+00  1.00000000E+00  9.10000043E-01
      0.00000000E+00  5.00000000E-01  9.10000065E-01
      5.00000000E-01  5.00000000E-01  9.10000033E-01
      1.00000000E+00  5.00000000E-01  9.09666667E-01
      1.50000000E+00  5.00000000E-01  9.09666667E-01
      0.00000000E+00  0.00000000E+00  9.10000065E-01
      5.00000000E-01  0.00000000E+00  9.10000043E-01
      1.00000000E+00  0.00000000E+00  9.09666667E-01
      1.50000000E+00  0.00000000E+00  9.09000000E-01
      0.00000000E+00  1.50000000E+00  8.80000065E-01
      5.00000000E-01  1.50000000E+00  8.80000065E-01
      1.00000000E+00  1.50000000E+00  8.80000065E-01
      1.50000000E+00  1.50000000E+00  8.80000065E-01
      0.00000000E+00  1.00000000E+00  8.80000065E-01
      5.00000000E-01  1.00000000E+00  8.80000043E-01
      1.00000000E+00  1.00000000E+00  8.80000033E-01
      1.50000000E+00  1.00000000E+00  8.80000043E-01
      0.00000000E+00  5.00000000E-01  8.80000065E-01
      5.00000000E-01  5.00000000E-01  8.80000033E-01
      1.00000000E+00  5.00000000E-01  8.79666667E-01
      1.50000000E+00  5.00000000E-01  8.79666667E-01
      0.00000000E+00  0.00000000E+00  8.80000065E-01
      5.00000000E-01  0.00000000E+00  8.80000043E-01
      1.00000000E+00  0.00000000E+00  8.79666667E-01
      1.50000000E+00  0.00000000E+00  8.79000000E-01
      0.00000000E+00  1.50000000E+00  8.20000065E-01
      5.00000000E-01  1.50000000E+00  8.20000065E-01
      1.00000000E+00  1.50000000E+00  8.20000065E-01
      1.50000000E+00  1.50000000E+00  8.20000065E-01
      0.00000000E+00  1.00000000E+00  8.20000065E-01
      5.00000000E-01  1.00000000E+00  8.20000043E-01
      1.00000000E+00  1.00000000E+00  8.20000033E-01
      1.50000000E+00  1.00000000E+00  8.20000043E-01
      0.00000000E+00  5.00000000E-01  8.20000065E-01
      5.00000000E-01  5.00000000E-01  8.20000033E-01
      1.00000000E+00  5.00000000E-01  8.19666667E-01
      1.50000000E+00  5.00000000E-01  8.19666667E-01
      0.00000000E+00  0.00000000E+00  8.20000065E-01
      5.00000000E-01  0.00000000E+00  8.20000043E-01
      1.00000000E+00  0.00000000E+00  8.19666667E-01
      1.50000000E+00  0.00000000E+00  8.19000000E-01
      0.00000000E+00  1.50000000E+00  7.60000065E-01
      5.00000000E-01  1.50000000E+00  7.60000065E-01
      1.00000000E+00  1.50000000E+00  7.60000065E-01
      1.50000000E+00  1.50000000E+00  7.60000065E-01
      0.00000000E+00  1.00000000E+00  7.60000065E-01
      5.00000000E-01  1.00000000E+00  7.60000043E-01
      1.00000000E+00  1.00000000E+00  7.60000033E-01
      1.50000000E+00  1.00000000E+00  7.60000043E-01
      0.00000000E+00  5.00000000E-01  7.60000065E-01
      5.00000000E-01  5.00000000E-01  7.60000033E-01
      1.00000000E+00  5.00000000E-01  7.59666667E-01
      1.50000000E+00  5.00000000E-01  7.59666667E-01
      0.00000000E+00  0.00000000E+00  7.60000065E-01
      5.00000000E-01  0.00000000E+00  7.60000043E-01
      1.00000000E+00  0.00000000E+00  7.59666667E-01
      1.50000000E+00  0.00000000E+00  7.59000000E-01
      0.00000000E+00  1.50000000E+00  6.10000065E-01
      5.00000000E-01  1.50000000E+00  6.10000065E-01
      1.00000000E+00  1.50000000E+00  6.10000065E-01
      1.50000000E+00  1.50000000E+00  6.10000065E-01
      0.00000000E+00  1.00000000E+00  6.10000065E-01
      5.00000000E-01  1.00000000E+00  6.10000043E-01
      1.00000000E+00  1.00000000E+00  6.10000033E-01
      1.50000000E+00  1.00000000E+00  6.10000043E-01
      0.00000000E+00  5.00000000E-01  6.10000065E-01
      5.00000000E-01  5.00000000E-01  6.10000033E-01
      1.00000000E+00  5.00000000E-01  6.09666667E-01
      1.50000000E+00  5.00000000E-01  6.09666667E-01
      0.00000000E+00  0.00000000E+00  6.10000065E-01
      5.00000000E-01  0.00000000E+00  6.10000043E-01
      1.00000000E+00  0.00000000E+00  6.09666667E-01
      1.50000000E+00  0.00000000E+00  6.09000000E-01
      0.00000000E+00  1.50000000E+00  4.60000065E-01
      5.00000000E-01  1.50000000E+00  4.60000065E-01
      1.00000000E+00  1.50000000E+00  4.60000065E-01
      1.50000000E+00  1.50000000E+00  4.60000065E-01
      0.00000000E+00  1.00000000E+00  4.60000065E-01
      5.00000000E-01  1.00000000E+00  4.60000043E-01
      1.00000000E+00  1.00000000E+00  4.60000032E-01
      1.50000000E+00  1.00000000E+00  4.60000043E-01
      0.00000000E+00  5.00000000E-01  4.60000065E-01
      5.00000000E-01  5.00000000E-01  4.60000032E-01
      1.00000000E+00  5.00000000E-01  4.59666667E-01
      1.50000000E+00  5.00000000E-01  4.59666667E-01
      0.00000000E+00  0.00000000E+00  4.60000065E-01
      5.00000000E-01  0.00000000E+00  4.60000043E-01
      1.00000000E+00  0.00000000E+00  4.59666667E-01
      1.50000000E+00  0.00000000E+00  4.59000000E-01
      0.00000000E+00  1.50000000E+00  1.60000065E-01
      5.00000000E-01  1.50000000E+00  1.60000065E-01
      1.00000000E+00  1.50000000E+00  1.60000065E-01
      1.50000000E+00  1.50000000E+00  1.60000065E-01
      0.00000000E+00  1.00000000E+00  1.60000065E-01
      5.00000000E-01  1.00000000E+00  1.60000043E-01
      1.00000000E+00  1.00000000E+00  1.60000032E-01
      1.50000000E+00  1.00000000E+00  1.60000043E-01
      0.00000000E+00  5.00000000E-01  1.60000065E-01
[...]
POINT_DATA      256
SCALARS pressure float
LOOKUP_TABLE default
   0.0000000000000000     
   0.0000000000000000     
   0.0000000000000000     
   0.0000000000000000     
   0.0000000000000000     
   0.0000000000000000     
   0.0000000000000000     
   0.0000000000000000     
   0.0000000000000000     
   0.0000000000000000     
   0.0000000000000000     
   0.0000000000000000     
   0.0000000000000000     
   0.0000000000000000     
   0.0000000000000000     
   0.0000000000000000     
   6.0000000000000053E-003
   6.0000000000000053E-003
   6.0000000000000053E-003
   6.0000000000000053E-003
   6.0000000000000053E-003
   6.0000000000000053E-003
   6.0000000000000053E-003
   6.0000000000000053E-003
   6.0000000000000053E-003
   6.0000000000000053E-003
   6.0000000000000053E-003
   6.0000000000000053E-003
   6.0000000000000053E-003
   6.0000000000000053E-003
   6.0000000000000053E-003
   6.0000000000000053E-003
   1.8000000000000016E-002
   1.8000000000000016E-002
   1.8000000000000016E-002
   1.8000000000000016E-002
   1.8000000000000016E-002
   1.8000000000000016E-002
   1.8000000000000016E-002
   1.8000000000000016E-002
   1.8000000000000016E-002
   1.8000000000000016E-002
   1.8000000000000016E-002
   1.8000000000000016E-002
   1.8000000000000016E-002
   1.8000000000000016E-002
   1.8000000000000016E-002
   1.8000000000000016E-002
   3.6000000000000032E-002
   3.6000000000000032E-002
   3.6000000000000032E-002
   3.6000000000000032E-002
   3.6000000000000032E-002
   3.6000000000000032E-002
   3.6000000000000032E-002
   3.6000000000000032E-002
   3.6000000000000032E-002
   3.6000000000000032E-002
   3.6000000000000032E-002
   3.6000000000000032E-002
   3.6000000000000032E-002
   3.6000000000000032E-002
   3.6000000000000032E-002
   3.6000000000000032E-002
   6.0000000000000053E-002
   6.0000000000000053E-002
   6.0000000000000053E-002
   6.0000000000000053E-002
   6.0000000000000053E-002
   6.0000000000000053E-002
   6.0000000000000053E-002
   6.0000000000000053E-002
   6.0000000000000053E-002
   6.0000000000000053E-002
   5.9999999999999942E-002
   6.0000000000000053E-002
   6.0000000000000053E-002
   6.0000000000000053E-002
   6.0000000000000053E-002
   5.9999999999999942E-002
   8.9999999999999969E-002
   8.9999999999999969E-002
   8.9999999999999969E-002
   8.9999999999999969E-002
   8.9999999999999969E-002
   8.9999999999999969E-002
   8.9999999999999969E-002
   8.9999999999999969E-002
   8.9999999999999969E-002
   8.9999999999999969E-002
   8.9999999999999969E-002
   8.9999999999999969E-002
   8.9999999999999969E-002
   8.9999999999999969E-002
   8.9999999999999969E-002
   8.9999999999999969E-002
  0.12000000000000000     
  0.12000000000000000     
  0.12000000000000000     
  0.12000000000000000     
  0.12000000000000000     
  0.12000000000000000     
  0.12000000000000000     
  0.12000000000000000     
  0.12000000000000000     
  0.12000000000000000     
  0.12000000000000000     
  0.12000000000000000     
  0.12000000000000000     
  0.12000000000000000     
  0.12000000000000000     
  0.12000000000000000     
  0.17999999999999994     
  0.17999999999999994     
  0.17999999999999994     
  0.17999999999999994     
  0.17999999999999994     
  0.17999999999999994     
  0.17999999999999994     
  0.17999999999999994     
  0.17999999999999994     
  0.17999999999999994     
  0.18000000000000005     
  0.17999999999999994     
  0.17999999999999994     
  0.17999999999999994     
  0.17999999999999994     
  0.18000000000000005     
  0.23999999999999999     
  0.23999999999999999     
  0.23999999999999999     
  0.23999999999999999     
  0.23999999999999999     
  0.23999999999999999     
  0.23999999999999999     
  0.23999999999999999     
  0.23999999999999999     
  0.23999999999999999     
  0.23999999999999999     
  0.23999999999999999     
  0.23999999999999999     
  0.23999999999999999     
  0.23999999999999999     
  0.23999999999999999     
  0.39000000000000001     
  0.39000000000000001     
  0.39000000000000001     
  0.39000000000000001     
  0.39000000000000001     
  0.39000000000000001     
  0.39000000000000001     
  0.39000000000000001     
  0.39000000000000001     
  0.39000000000000001     
  0.39000000000000001     
  0.39000000000000001     
  0.39000000000000001     
  0.39000000000000001     
  0.39000000000000001     
  0.39000000000000001     
  0.54000000000000004     
  0.54000000000000004     
  0.54000000000000004     
  0.54000000000000004     
  0.54000000000000004     
  0.54000000000000004     
  0.54000000000000004     
  0.54000000000000004     
  0.54000000000000004     
  0.54000000000000004     
  0.54000000000000004     
  0.54000000000000004     
  0.54000000000000004     
  0.54000000000000004     
  0.54000000000000004     
  0.54000000000000004     
  0.84000000000000008     
  0.84000000000000008     
  0.84000000000000008     
  0.84000000000000008     
  0.84000000000000008     
  0.84000000000000008     
  0.84000000000000008     
  0.84000000000000008     
  0.84000000000000008     
  0.84000000000000008     
  0.84000000000000008     
  0.84000000000000008     
  0.84000000000000008     
  0.84000000000000008     
  0.84000000000000008     
  0.84000000000000008     
   1.1400000000000001     
   1.1400000000000001     
   1.1400000000000001     
   1.1400000000000001     
   1.1400000000000001     
   1.1400000000000001     
   1.1400000000000001     
   1.1400000000000001     
   1.1400000000000001     
   1.1400000000000001     
   1.1400000000000001     
   1.1400000000000001     
   1.1400000000000001     
   1.1400000000000001     
   1.1400000000000001     
   1.1400000000000001     
   1.7400000000000002     
   1.7400000000000002     
   1.7400000000000002     
   1.7400000000000002     
   1.7400000000000002     
   1.7400000000000002     
   1.7400000000000002     
   1.7400000000000002     
   1.7400000000000002     
   1.7400000000000002     
   1.7400000000000002     
   1.7400000000000002     
   1.7400000000000002     
   1.7400000000000002     
   1.7400000000000002     
   1.7400000000000002     
   2.3399999999999999     
   2.3399999999999999     
   2.3399999999999999     
   2.3399999999999999     
   2.3399999999999999     
   2.3399999999999999     
   2.3399999999999999     
   2.3399999999999999     
   2.3399999999999999     
   2.3399999999999999     
   2.3399999999999999     
   2.3399999999999999     
   2.3399999999999999     
   2.3399999999999999     
   2.3399999999999999     
   2.3399999999999999     
   3.0000000000000000     
   3.0000000000000000     
   3.0000000000000000     
   3.0000000000000000     
   3.0000000000000000     
   3.0000000000000000     
   3.0000000000000000     
   3.0000000000000000     
   3.0000000000000000     
   3.0000000000000000     
   3.0000000000000000     
   3.0000000000000000     
   3.0000000000000000     
   3.0000000000000000     
   3.0000000000000000     
   3.0000000000000000     
