# vtk DataFile Version 2.0
3D Unstructured Grid of Linear Triangles
ASCII
DATASET UNSTRUCTURED_GRID
FIELD FieldData  1
TIME 1 1 double
       18000.00000
POINTS      256 float
      0.00000000E+00  1.50000000E+00  1.00000007E+00
      5.00000000E-01  1.50000000E+00  1.00000007E+00
      1.00000000E+00  1.50000000E+00  1.00000007E+00
      1.50000000E+00  1.50000000E+00  1.00000007E+00
      0.00000000E+00  1.00000000E+00  1.00000007E+00
      5.00000000E-01  1.00000000E+00  1.00000004E+00
      1.00000000E+00  1.00000000E+00  1.00000003E+00
      1.50000000E+00  1.00000000E+00  1.00000004E+00
      0.00000000E+00  5.00000000E-01  1.00000007E+00
      5.00000000E-01  5.00000000E-01  1.00000003E+00
      1.00000000E+00  5.00000000E-01  9.99666667E-01
      1.50000000E+00  5.00000000E-01  9.99666667E-01
      0.00000000E+00  0.00000000E+00  1.00000007E+00
      5.00000000E-01  0.00000000E+00  1.00000004E+00
      1.00000000E+00  0.00000000E+00  9.99666667E-01
      1.50000000E+00  0.00000000E+00  9.99000000E-01
      0.00000000E+00  1.50000000E+00  9.94000065E-01
      5.00000000E-01  1.50000000E+00  9.94000065E-01
      1.00000000E+00  1.50000000E+00  9.94000065E-01
      1.50000000E+00  1.50000000E+00  9.94000065E-01
      0.00000000E+00  1.00000000E+00  9.94000065E-01
      5.00000000E-01  1.00000000E+00  9.94000043E-01
      1.00000000E+00  1.00000000E+00  9.94000033E-01
      1.50000000E+00  1.00000000E+00  9.94000043E-01
      0.00000000E+00  5.00000000E-01  9.94000065E-01
      5.00000000E-01  5.00000000E-01  9.94000033E-01
      1.00000000E+00  5.00000000E-01  9.93666667E-01
      1.50000000E+00  5.00000000E-01  9.93666667E-01
      0.00000000E+00  0.00000000E+00  9.94000065E-01
      5.00000000E-01  0.00000000E+00  9.94000043E-01
      1.00000000E+00  0.00000000E+00  9.93666667E-01
      1.50000000E+00  0.00000000E+00  9.93000000E-01
      0.00000000E+00  1.50000000E+00  9.82000065E-01
      5.00000000E-01  1.50000000E+00  9.82000065E-01
      1.00000000E+00  1.50000000E+00  9.82000065E-01
      1.50000000E+00  1.50000000E+00  9.82000065E-01
      0.00000000E+00  1.00000000E+00  9.82000065E-01
      5.00000000E-01  1.00000000E+00  9.82000043E-01
      1.00000000E+00  1.00000000E+00  9.82000033E-01
      1.50000000E+00  1.00000000E+00  9.82000043E-01
      0.00000000E+00  5.00000000E-01  9.82000065E-01
      5.00000000E-01  5.00000000E-01  9.82000033E-01
      1.00000000E+00  5.00000000E-01  9.81666667E-01
      1.50000000E+00  5.00000000E-01  9.81666667E-01
      0.00000000E+00  0.00000000E+00  9.82000065E-01
      5.00000000E-01  0.00000000E+00  9.82000043E-01
      1.00000000E+00  0.00000000E+00  9.81666667E-01
      1.50000000E+00  0.00000000E+00  9.81000000E-01
      0.00000000E+00  1.50000000E+00  9.64000065E-01
      5.00000000E-01  1.50000000E+00  9.64000065E-01
      1.00000000E+00  1.50000000E+00  9.64000065E-01
      1.50000000E+00  1.50000000E+00  9.64000065E-01
      0.00000000E+00  1.00000000E+00  9.64000065E-01
      5.00000000E-01  1.00000000E+00  9.64000043E-01
      1.00000000E+00  1.00000000E+00  9.64000032E-01
      1.50000000E+00  1.00000000E+00  9.64000043E-01
      0.00000000E+00  5.00000000E-01  9.64000065E-01
      5.00000000E-01  5.00000000E-01  9.64000032E-01
      1.00000000E+00  5.00000000E-01  9.63666667E-01
      1.50000000E+00  5.00000000E-01  9.63666667E-01
      0.00000000E+00  0.00000000E+00  9.64000065E-01
      5.00000000E-01  0.00000000E+00  9.64000043E-01
      1.00000000E+00  0.00000000E+00  9.63666667E-01
      1.50000000E+00  0.00000000E+00  9.63000000E-01
      0.00000000E+00  1.50000000E+00  9.40000065E-01
      5.00000000E-01  1.50000000E+00  9.40000065E-01
      1.00000000E+00  1.50000000E+00  9.40000065E-01
      1.50000000E+00  1.50000000E+00  9.40000065E-01
      0.00000000E+00  1.00000000E+00  9.40000065E-01
      5.00000000E-01  1.00000000E+00  9.40000043E-01
      1.00000000E+00  1.00000000E+00  9.40000032E-01
      1.50000000E+00  1.00000000E+00  9.40000043E-01
      0.00000000E+00  5.00000000E-01  9.40000065E-01
      5.00000000E-01  5.00000000E-01  9.40000032E-01
      1.00000000E+00  5.00000000E-01  9.39666667E-01
      1.50000000E+00  5.00000000E-01  9.39666667E-01
      0.00000000E+00  0.00000000E+00  9.40000065E-01
      5.00000000E-01  0.00000000E+00  9.40000043E-01
      1.00000000E+00  0.00000000E+00  9.39666667E-01
      1.50000000E+00  0.00000000E+00  9.39000000E-01
      0.00000000E+00  1.50000000E+00  9.10000065E-01
      5.00000000E-01  1.50000000E+00  9.10000065E-01
      1.00000000E+00  1.50000000E+00  9.10000065E-01
      1.50000000E+00  1.50000000E+00  9.10000065E-01
      0.00000000E+00  1.00000000E+00  9.10000065E-01
      5.00000000E-01  1.00000000E+00  9.10000043E-01
      1.00000000E+00  1.00000000E+00  9.10000033E-01
      1.50000000E+00  1.00000000E+00  9.10000043E-01
      0.00000000E+00  5.00000000E-01  9.10000065E-01
      5.00000000E-01  5.00000000E-01  9.10000033E-01
      1.00000000E+00  5.00000000E-01  9.09666667E-01
      1.50000000E+00  5.00000000E-01  9.09666667E-01
      0.00000000E+00  0.00000000E+00  9.10000065E-01
      5.00000000E-01  0.00000000E+00  9.10000043E-01
      1.00000000E+00  0.00000000E+00  9.09666667E-01
      1.50000000E+00  0.00000000E+00  9.09000000E-01
      0.00000000E+00  1.50000000E+00  8.80000065E-01
      5.00000000E-01  1.50000000E+00  8.80000065E-01
      1.00000000E+00  1.50000000E+00  8.80000065E-01
      1.50000000E+00  1.50000000E+00  8.80000065E-01
      0.00000000E+00  1.00000000E+00  8.80000065E-01
      5.00000000E-01  1.00000000E+00  8.80000043E-01
      1.00000000E+00  1.00000000E+00  8.80000033E-01
      1.50000000E+00  1.00000000E+00  8.80000043E-01
      0.00000000E+00  5.00000000E-01  8.80000065E-01
      5.00000000E-01  5.00000000E-01  8.80000033E-01
      1.00000000E+00  5.00000000E-01  8.79666667E-01
      1.50000000E+00  5.00000000E-01  8.79666667E-01
      0.00000000E+00  0.00000000E+00  8.80000065E-01
      5.00000000E-01  0.00000000E+00  8.80000043E-01
      1.00000000E+00  0.00000000E+00  8.79666667E-01
      1.50000000E+00  0.00000000E+00  8.79000000E-01
      0.00000000E+00  1.50000000E+00  8.20000065E-01
      5.00000000E-01  1.50000000E+00  8.20000065E-01
      1.00000000E+00  1.50000000E+00  8.20000065E-01
      1.50000000E+00  1.50000000E+00  8.20000065E-01
      0.00000000E+00  1.00000000E+00  8.20000065E-01
      5.00000000E-01  1.00000000E+00  8.20000043E-01
      1.00000000E+00  1.00000000E+00  8.20000033E-01
      1.50000000E+00  1.00000000E+00  8.20000043E-01
      0.00000000E+00  5.00000000E-01  8.20000065E-01
      5.00000000E-01  5.00000000E-01  8.20000033E-01
      1.00000000E+00  5.00000000E-01  8.19666667E-01
      1.50000000E+00  5.00000000E-01  8.19666667E-01
      0.00000000E+00  0.00000000E+00  8.20000065E-01
      5.00000000E-01  0.00000000E+00  8.20000043E-01
      1.00000000E+00  0.00000000E+00  8.19666667E-01
      1.50000000E+00  0.00000000E+00  8.19000000E-01
      0.00000000E+00  1.50000000E+00  7.60000065E-01
      5.00000000E-01  1.50000000E+00  7.60000065E-01
      1.00000000E+00  1.50000000E+00  7.60000065E-01
      1.50000000E+00  1.50000000E+00  7.60000065E-01
      0.00000000E+00  1.00000000E+00  7.60000065E-01
      5.00000000E-01  1.00000000E+00  7.60000043E-01
      1.00000000E+00  1.00000000E+00  7.60000033E-01
      1.50000000E+00  1.00000000E+00  7.60000043E-01
      0.00000000E+00  5.00000000E-01  7.60000065E-01
      5.00000000E-01  5.00000000E-01  7.60000033E-01
      1.00000000E+00  5.00000000E-01  7.59666667E-01
      1.50000000E+00  5.00000000E-01  7.59666667E-01
      0.00000000E+00  0.00000000E+00  7.60000065E-01
      5.00000000E-01  0.00000000E+00  7.60000043E-01
      1.00000000E+00  0.00000000E+00  7.59666667E-01
      1.50000000E+00  0.00000000E+00  7.59000000E-01
      0.00000000E+00  1.50000000E+00  6.10000065E-01
      5.00000000E-01  1.50000000E+00  6.10000065E-01
      1.00000000E+00  1.50000000E+00  6.10000065E-01
      1.50000000E+00  1.50000000E+00  6.10000065E-01
      0.00000000E+00  1.00000000E+00  6.10000065E-01
      5.00000000E-01  1.00000000E+00  6.10000043E-01
      1.00000000E+00  1.00000000E+00  6.10000033E-01
      1.50000000E+00  1.00000000E+00  6.10000043E-01
      0.00000000E+00  5.00000000E-01  6.10000065E-01
      5.00000000E-01  5.00000000E-01  6.10000033E-01
      1.00000000E+00  5.00000000E-01  6.09666667E-01
      1.50000000E+00  5.00000000E-01  6.09666667E-01
      0.00000000E+00  0.00000000E+00  6.10000065E-01
      5.00000000E-01  0.00000000E+00  6.10000043E-01
      1.00000000E+00  0.00000000E+00  6.09666667E-01
      1.50000000E+00  0.00000000E+00  6.09000000E-01
      0.00000000E+00  1.50000000E+00  4.60000065E-01
      5.00000000E-01  1.50000000E+00  4.60000065E-01
      1.00000000E+00  1.50000000E+00  4.60000065E-01
      1.50000000E+00  1.50000000E+00  4.60000065E-01
      0.00000000E+00  1.00000000E+00  4.60000065E-01
      5.00000000E-01  1.00000000E+00  4.60000043E-01
      1.00000000E+00  1.00000000E+00  4.60000032E-01
      1.50000000E+00  1.00000000E+00  4.60000043E-01
      0.00000000E+00  5.00000000E-01  4.60000065E-01
      5.00000000E-01  5.00000000E-01  4.60000032E-01
      1.00000000E+00  5.00000000E-01  4.59666667E-01
      1.50000000E+00  5.00000000E-01  4.59666667E-01
      0.00000000E+00  0.00000000E+00  4.60000065E-01
      5.00000000E-01  0.00000000E+00  4.60000043E-01
      1.00000000E+00  0.00000000E+00  4.59666667E-01
      1.50000000E+00  0.00000000E+00  4.59000000E-01
      0.00000000E+00  1.50000000E+00  1.60000065E-01
      5.00000000E-01  1.50000000E+00  1.60000065E-01
      1.00000000E+00  1.50000000E+00  1.60000065E-01
      1.50000000E+00  1.50000000E+00  1.60000065E-01
      0.00000000E+00  1.00000000E+00  1.60000065E-01
      5.00000000E-01  1.00000000E+00  1.60000043E-01
      1.00000000E+00  1.00000000E+00  1.60000032E-01
      1.50000000E+00  1.00000000E+00  1.60000043E-01
      0.00000000E+00  5.00000000E-01  1.60000065E-01
[...]
POINT_DATA      256
SCALARS pressure float
LOOKUP_TABLE default
   4.0020272674354256E-002
   2.2850939116934643E-002
   6.6612054381155097E-002
   9.2804342966939193E-002
   3.4082396627398426E-002
   2.6193395438253411E-002
   2.4337200111519391E-002
   6.3299773560484163E-002
   2.9045248872664828E-002
   2.0709230548852403E-002
   1.4585369956016402E-002
   9.9569075617617457E-003
   2.8009091757243861E-002
   2.1690955422548022E-002
   1.3104112347541962E-002
   2.1170755317985419E-002
   4.5811081195361696E-002
   2.9137368075288095E-002
   7.1921306862655229E-002
   9.7582524725974187E-002
   3.9974096141831672E-002
   3.2233843675192893E-002
   3.0627815181760505E-002
   6.8624603441448898E-002
   3.4978256602085207E-002
   2.6801346550181276E-002
   2.0776731582484061E-002
   1.6388093642154208E-002
   3.3929352747723920E-002
   2.7719428324972532E-002
   1.9303030859189958E-002
   2.7144194530934421E-002
   5.7405803629888064E-002
   4.1678417516304807E-002
   8.2568908180670239E-002
  0.10719538963187776     
   5.1759804900095296E-002
   4.4312409645121793E-002
   4.3172553472717472E-002
   7.9308349481282181E-002
   4.6844847508794793E-002
   3.8978377869185829E-002
   3.3152576462240499E-002
   2.9215336976550325E-002
   4.5773219654338108E-002
   3.9774908818417096E-002
   3.1689757248235542E-002
   3.9099920513173410E-002
   7.4830203866073627E-002
   6.0427231441553091E-002
   9.8641800558645132E-002
  0.12178553531063147     
   6.9453717579698787E-002
   6.2432052010607988E-002
   6.1918056651177673E-002
   9.5438002043502973E-002
   6.4657851442503952E-002
   5.7235469885931138E-002
   5.1704312852530535E-002
   4.8379025203144854E-002
   6.3556509655894794E-002
   5.7862646650040220E-002
   5.0249230928490096E-002
   5.7060981820721918E-002
   9.8119702402702666E-002
   8.5316540909471730E-002
  0.12024933014673794     
  0.14153930917412180     
   9.3072797824887601E-002
   8.6592974206298232E-002
   8.6790712594030803E-002
  0.11712383408671533     
   8.8431357049600604E-002
   8.1563396650879569E-002
   7.6416460401079578E-002
   7.3800241131328881E-002
   8.7297295727516350E-002
   8.1986933197394932E-002
   7.4959583183105194E-002
   8.1053743577176485E-002
  0.12731511395250256     
  0.11627097032951500     
  0.14751811997400302     
  0.16667690931686721     
  0.12263737251131451     
  0.11679292451878122     
  0.11771023573834626     
  0.14449238033213418     
  0.11818180064029231     
  0.11195117055510016     
  0.10726731609952304     
  0.10539107484825828     
  0.11701619219090918     
  0.11215194975404658     
  0.10579513838933662     
  0.11110499037345586     
  0.15659542375389812     
  0.14706939307913899     
  0.17504504512966543     
  0.19226101793621087     
  0.15224322759889822     
  0.14698784436873763     
  0.14846819207020873     
  0.17211591470424015     
  0.14796526114373701     
  0.14231645655843594     
  0.13807328851851072     
  0.13680833587096772     
  0.14677503414788526     
  0.14232501256035562     
  0.13657931228837161     
  0.14120832897732388     
  0.21535588998200964     
  0.20830798411053891     
  0.23077624962761789     
  0.24465028076868744     
  0.21156774198077496     
  0.20735451463051366     
  0.20957365828915164     
  0.22805978534531240     
  0.20762455474905731     
  0.20298497850867772     
  0.19954958657505489     
  0.19914340348540838     
  0.20641864110444472     
  0.20269093632803142     
  0.19799501740867709     
  0.20155273026976903     
  0.27435041516943559     
  0.26914900256028035     
  0.28724184733154207     
  0.29835561326606996     
  0.27101583057416190     
  0.26767776540158594     
  0.27028889782782739     
  0.28471851308941504     
  0.26737805235386164     
  0.26358238665437250     
  0.26085048243040315     
  0.26102072642284141     
  0.26617119037976128     
  0.26306722619432488     
  0.25925197402693656     
  0.26199652558932829     
  0.42252814442571340     
  0.42017903665438444     
  0.43091878952117774     
  0.43736499703773707     
  0.42007302362945287     
  0.41827645495700039     
  0.42088043656890273     
  0.42893196533130779     
  0.41710878480762437     
  0.41480464063341449     
  0.41338359614903947     
  0.41398451799259034     
  0.41602751279152506     
  0.41401854314880887     
  0.41174522614268128     
  0.41336098273667599     
  0.57135444498488708     
  0.57037354127698259     
  0.57678906212900938     
  0.58039178475224529     
  0.56949942361760253     
  0.56862043186468492     
  0.57078365157967725     
  0.57521152213275972     
  0.56708480180096765     
  0.56573616275453265     
  0.56514686334223285     
  0.56579831462211605     
  0.56613431909487510     
  0.56488254574156482     
  0.56362390448381894     
  0.56467718726957372     
  0.87002797952576494     
  0.86993409842312752     
  0.87244762103805096     
  0.87370158223075522     
  0.86896119461213817     
  0.86879257398521703     
  0.86996996752791267     
  0.87153196506298225     
  0.86741372406248340     
  0.86693661179070569     
  0.86704716480041211     
  0.86739262571432052     
  0.86679019835011228     
  0.86625239667692799     
  0.86596623284258212     
  0.86667493982179378     
   1.1693282732411385     
   1.1693779024449416     
   1.1703435571279699     
   1.1707088700851471     
   1.1687174338194852     
   1.1687375669358642     
   1.1692990512581876     
   1.1698067586693368     
   1.1677535687201388     
   1.1676243180982557     
   1.1679592853849252     
   1.1681255808905557     
   1.1673535170963103     
   1.1671596910238620     
   1.1672927174812615     
   1.1679448826011340     
   1.7687370009469592     
   1.7687692946509372     
   1.7689679593718068     
   1.7690232263191175     
   1.7685253726476704     
   1.7685538533495662     
   1.7686950573565494     
   1.7687883391084571     
   1.7681712440193480     
   1.7681584886095671     
   1.7685183144577692     
   1.7685524790277964     
   1.7680258520361960     
   1.7679793312947565     
   1.7682836866278395     
   1.7689297839481410     
   2.3685330860459821     
   2.3685416406189335     
   2.3685849010582767     
   2.3685911375688495     
   2.3684565441319156     
   2.3684670293635923     
   2.3685022116191865     
   2.3685204055585491     
   2.3683251612783751     
   2.3683251092005926     
   2.3686693278310882     
   2.3686759192363671     
   2.3682711500796310     
   2.3682582212788663     
   2.3685871339479911     
   2.3692432291895713     
   3.0284756956370176     
   3.0284826669958607     
   3.0284992974913307     
   3.0285050934237598     
   3.0284357836284603     
   3.0284424002998236     
   3.0284574206306547     
   3.0284673223802057     
   3.0283681026012923     
   3.0283654599965955     
   3.0287026583217163     
   3.0287013459799628     
   3.0283413973480080     
   3.0283283227361095     
   3.0286579556493742     
   3.0293087455302499     
