# vtk DataFile Version 2.0
3D Unstructured Grid of Linear Triangles
ASCII
DATASET UNSTRUCTURED_GRID
FIELD FieldData  1
TIME 1 1 double
           0.01000
POINTS      256 float
      0.00000000E+00  1.50000000E+00  1.00000007E+00
      5.00000000E-01  1.50000000E+00  1.00000007E+00
      1.00000000E+00  1.50000000E+00  1.00000007E+00
      1.50000000E+00  1.50000000E+00  1.00000007E+00
      0.00000000E+00  1.00000000E+00  1.00000007E+00
      5.00000000E-01  1.00000000E+00  1.00000004E+00
      1.00000000E+00  1.00000000E+00  1.00000003E+00
      1.50000000E+00  1.00000000E+00  1.00000004E+00
      0.00000000E+00  5.00000000E-01  1.00000007E+00
      5.00000000E-01  5.00000000E-01  1.00000003E+00
      1.00000000E+00  5.00000000E-01  9.99666667E-01
      1.50000000E+00  5.00000000E-01  9.99666667E-01
      0.00000000E+00  0.00000000E+00  1.00000007E+00
      5.00000000E-01  0.00000000E+00  1.00000004E+00
      1.00000000E+00  0.00000000E+00  9.99666667E-01
      1.50000000E+00  0.00000000E+00  9.99000000E-01
      0.00000000E+00  1.50000000E+00  9.94000065E-01
      5.00000000E-01  1.50000000E+00  9.94000065E-01
      1.00000000E+00  1.50000000E+00  9.94000065E-01
      1.50000000E+00  1.50000000E+00  9.94000065E-01
      0.00000000E+00  1.00000000E+00  9.94000065E-01
      5.00000000E-01  1.00000000E+00  9.94000043E-01
      1.00000000E+00  1.00000000E+00  9.94000033E-01
      1.50000000E+00  1.00000000E+00  9.94000043E-01
      0.00000000E+00  5.00000000E-01  9.94000065E-01
      5.00000000E-01  5.00000000E-01  9.94000033E-01
      1.00000000E+00  5.00000000E-01  9.93666667E-01
      1.50000000E+00  5.00000000E-01  9.93666667E-01
      0.00000000E+00  0.00000000E+00  9.94000065E-01
      5.00000000E-01  0.00000000E+00  9.94000043E-01
      1.00000000E+00  0.00000000E+00  9.93666667E-01
      1.50000000E+00  0.00000000E+00  9.93000000E-01
      0.00000000E+00  1.50000000E+00  9.82000065E-01
      5.00000000E-01  1.50000000E+00  9.82000065E-01
      1.00000000E+00  1.50000000E+00  9.82000065E-01
      1.50000000E+00  1.50000000E+00  9.82000065E-01
      0.00000000E+00  1.00000000E+00  9.82000065E-01
      5.00000000E-01  1.00000000E+00  9.82000043E-01
      1.00000000E+00  1.00000000E+00  9.82000033E-01
      1.50000000E+00  1.00000000E+00  9.82000043E-01
      0.00000000E+00  5.00000000E-01  9.82000065E-01
      5.00000000E-01  5.00000000E-01  9.82000033E-01
      1.00000000E+00  5.00000000E-01  9.81666667E-01
      1.50000000E+00  5.00000000E-01  9.81666667E-01
      0.00000000E+00  0.00000000E+00  9.82000065E-01
      5.00000000E-01  0.00000000E+00  9.82000043E-01
      1.00000000E+00  0.00000000E+00  9.81666667E-01
      1.50000000E+00  0.00000000E+00  9.81000000E-01
      0.00000000E+00  1.50000000E+00  9.64000065E-01
      5.00000000E-01  1.50000000E+00  9.64000065E-01
      1.00000000E+00  1.50000000E+00  9.64000065E-01
      1.50000000E+00  1.50000000E+00  9.64000065E-01
      0.00000000E+00  1.00000000E+00  9.64000065E-01
      5.00000000E-01  1.00000000E+00  9.64000043E-01
      1.00000000E+00  1.00000000E+00  9.64000032E-01
      1.50000000E+00  1.00000000E+00  9.64000043E-01
      0.00000000E+00  5.00000000E-01  9.64000065E-01
      5.00000000E-01  5.00000000E-01  9.64000032E-01
      1.00000000E+00  5.00000000E-01  9.63666667E-01
      1.50000000E+00  5.00000000E-01  9.63666667E-01
      0.00000000E+00  0.00000000E+00  9.64000065E-01
      5.00000000E-01  0.00000000E+00  9.64000043E-01
      1.00000000E+00  0.00000000E+00  9.63666667E-01
      1.50000000E+00  0.00000000E+00  9.63000000E-01
      0.00000000E+00  1.50000000E+00  9.40000065E-01
      5.00000000E-01  1.50000000E+00  9.40000065E-01
      1.00000000E+00  1.50000000E+00  9.40000065E-01
      1.50000000E+00  1.50000000E+00  9.40000065E-01
      0.00000000E+00  1.00000000E+00  9.40000065E-01
      5.00000000E-01  1.00000000E+00  9.40000043E-01
      1.00000000E+00  1.00000000E+00  9.40000032E-01
      1.50000000E+00  1.00000000E+00  9.40000043E-01
      0.00000000E+00  5.00000000E-01  9.40000065E-01
      5.00000000E-01  5.00000000E-01  9.40000032E-01
      1.00000000E+00  5.00000000E-01  9.39666667E-01
      1.50000000E+00  5.00000000E-01  9.39666667E-01
      0.00000000E+00  0.00000000E+00  9.40000065E-01
      5.00000000E-01  0.00000000E+00  9.40000043E-01
      1.00000000E+00  0.00000000E+00  9.39666667E-01
      1.50000000E+00  0.00000000E+00  9.39000000E-01
      0.00000000E+00  1.50000000E+00  9.10000065E-01
      5.00000000E-01  1.50000000E+00  9.10000065E-01
      1.00000000E+00  1.50000000E+00  9.10000065E-01
      1.50000000E+00  1.50000000E+00  9.10000065E-01
      0.00000000E+00  1.00000000E+00  9.10000065E-01
      5.00000000E-01  1.00000000E+00  9.10000043E-01
      1.00000000E+00  1.00000000E+00  9.10000033E-01
      1.50000000E+00  1.00000000E+00  9.10000043E-01
      0.00000000E+00  5.00000000E-01  9.10000065E-01
      5.00000000E-01  5.00000000E-01  9.10000033E-01
      1.00000000E+00  5.00000000E-01  9.09666667E-01
      1.50000000E+00  5.00000000E-01  9.09666667E-01
      0.00000000E+00  0.00000000E+00  9.10000065E-01
      5.00000000E-01  0.00000000E+00  9.10000043E-01
      1.00000000E+00  0.00000000E+00  9.09666667E-01
      1.50000000E+00  0.00000000E+00  9.09000000E-01
      0.00000000E+00  1.50000000E+00  8.80000065E-01
      5.00000000E-01  1.50000000E+00  8.80000065E-01
      1.00000000E+00  1.50000000E+00  8.80000065E-01
      1.50000000E+00  1.50000000E+00  8.80000065E-01
      0.00000000E+00  1.00000000E+00  8.80000065E-01
      5.00000000E-01  1.00000000E+00  8.80000043E-01
      1.00000000E+00  1.00000000E+00  8.80000033E-01
      1.50000000E+00  1.00000000E+00  8.80000043E-01
      0.00000000E+00  5.00000000E-01  8.80000065E-01
      5.00000000E-01  5.00000000E-01  8.80000033E-01
      1.00000000E+00  5.00000000E-01  8.79666667E-01
      1.50000000E+00  5.00000000E-01  8.79666667E-01
      0.00000000E+00  0.00000000E+00  8.80000065E-01
      5.00000000E-01  0.00000000E+00  8.80000043E-01
      1.00000000E+00  0.00000000E+00  8.79666667E-01
      1.50000000E+00  0.00000000E+00  8.79000000E-01
      0.00000000E+00  1.50000000E+00  8.20000065E-01
      5.00000000E-01  1.50000000E+00  8.20000065E-01
      1.00000000E+00  1.50000000E+00  8.20000065E-01
      1.50000000E+00  1.50000000E+00  8.20000065E-01
      0.00000000E+00  1.00000000E+00  8.20000065E-01
      5.00000000E-01  1.00000000E+00  8.20000043E-01
      1.00000000E+00  1.00000000E+00  8.20000033E-01
      1.50000000E+00  1.00000000E+00  8.20000043E-01
      0.00000000E+00  5.00000000E-01  8.20000065E-01
      5.00000000E-01  5.00000000E-01  8.20000033E-01
      1.00000000E+00  5.00000000E-01  8.19666667E-01
      1.50000000E+00  5.00000000E-01  8.19666667E-01
      0.00000000E+00  0.00000000E+00  8.20000065E-01
      5.00000000E-01  0.00000000E+00  8.20000043E-01
      1.00000000E+00  0.00000000E+00  8.19666667E-01
      1.50000000E+00  0.00000000E+00  8.19000000E-01
      0.00000000E+00  1.50000000E+00  7.60000065E-01
      5.00000000E-01  1.50000000E+00  7.60000065E-01
      1.00000000E+00  1.50000000E+00  7.60000065E-01
      1.50000000E+00  1.50000000E+00  7.60000065E-01
      0.00000000E+00  1.00000000E+00  7.60000065E-01
      5.00000000E-01  1.00000000E+00  7.60000043E-01
      1.00000000E+00  1.00000000E+00  7.60000033E-01
      1.50000000E+00  1.00000000E+00  7.60000043E-01
      0.00000000E+00  5.00000000E-01  7.60000065E-01
      5.00000000E-01  5.00000000E-01  7.60000033E-01
      1.00000000E+00  5.00000000E-01  7.59666667E-01
      1.50000000E+00  5.00000000E-01  7.59666667E-01
      0.00000000E+00  0.00000000E+00  7.60000065E-01
      5.00000000E-01  0.00000000E+00  7.60000043E-01
      1.00000000E+00  0.00000000E+00  7.59666667E-01
      1.50000000E+00  0.00000000E+00  7.59000000E-01
      0.00000000E+00  1.50000000E+00  6.10000065E-01
      5.00000000E-01  1.50000000E+00  6.10000065E-01
      1.00000000E+00  1.50000000E+00  6.10000065E-01
      1.50000000E+00  1.50000000E+00  6.10000065E-01
      0.00000000E+00  1.00000000E+00  6.10000065E-01
      5.00000000E-01  1.00000000E+00  6.10000043E-01
      1.00000000E+00  1.00000000E+00  6.10000033E-01
      1.50000000E+00  1.00000000E+00  6.10000043E-01
      0.00000000E+00  5.00000000E-01  6.10000065E-01
      5.00000000E-01  5.00000000E-01  6.10000033E-01
      1.00000000E+00  5.00000000E-01  6.09666667E-01
      1.50000000E+00  5.00000000E-01  6.09666667E-01
      0.00000000E+00  0.00000000E+00  6.10000065E-01
      5.00000000E-01  0.00000000E+00  6.10000043E-01
      1.00000000E+00  0.00000000E+00  6.09666667E-01
      1.50000000E+00  0.00000000E+00  6.09000000E-01
      0.00000000E+00  1.50000000E+00  4.60000065E-01
      5.00000000E-01  1.50000000E+00  4.60000065E-01
      1.00000000E+00  1.50000000E+00  4.60000065E-01
      1.50000000E+00  1.50000000E+00  4.60000065E-01
      0.00000000E+00  1.00000000E+00  4.60000065E-01
      5.00000000E-01  1.00000000E+00  4.60000043E-01
      1.00000000E+00  1.00000000E+00  4.60000032E-01
      1.50000000E+00  1.00000000E+00  4.60000043E-01
      0.00000000E+00  5.00000000E-01  4.60000065E-01
      5.00000000E-01  5.00000000E-01  4.60000032E-01
      1.00000000E+00  5.00000000E-01  4.59666667E-01
      1.50000000E+00  5.00000000E-01  4.59666667E-01
      0.00000000E+00  0.00000000E+00  4.60000065E-01
      5.00000000E-01  0.00000000E+00  4.60000043E-01
      1.00000000E+00  0.00000000E+00  4.59666667E-01
      1.50000000E+00  0.00000000E+00  4.59000000E-01
      0.00000000E+00  1.50000000E+00  1.60000065E-01
      5.00000000E-01  1.50000000E+00  1.60000065E-01
      1.00000000E+00  1.50000000E+00  1.60000065E-01
      1.50000000E+00  1.50000000E+00  1.60000065E-01
      0.00000000E+00  1.00000000E+00  1.60000065E-01
      5.00000000E-01  1.00000000E+00  1.60000043E-01
      1.00000000E+00  1.00000000E+00  1.60000032E-01
      1.50000000E+00  1.00000000E+00  1.60000043E-01
      0.00000000E+00  5.00000000E-01  1.60000065E-01
[...]
POINT_DATA      256
SCALARS pressure float
LOOKUP_TABLE default
   9.5963627580623998E-010
   9.3083723325358882E-010
   8.4485324559135236E-010
   7.7739846732264014E-010
   9.3083723323815446E-010
   8.6820683349710569E-010
   4.3475532705989486E-010
   3.0630061563564489E-010
   8.4485324561460214E-010
   4.3475532706187017E-010
   2.0254399417781403E-009
   9.2993103621534377E-010
   7.7739846733462320E-010
   3.0630061561708218E-010
   9.2993103618371538E-010
   4.8270005863365704E-009
   5.9998721392935184E-003
   5.9997802017967058E-003
   5.9995057004341903E-003
   5.9992903534158495E-003
   5.9997802017978429E-003
   5.9995793613026203E-003
   5.9982191221764061E-003
   5.9978174762820094E-003
   5.9995057004329335E-003
   5.9982191221758579E-003
   6.0032214028055472E-003
   5.9998040128534909E-003
   5.9992903534192192E-003
   5.9978174762820233E-003
   5.9998040128534658E-003
   6.0120161195240862E-003
   1.7999614543302834E-002
   1.7999338893820774E-002
   1.7998516276140679E-002
   1.7997871001833966E-002
   1.7999338893822717E-002
   1.7998737124877252E-002
   1.7994796361786632E-002
   1.7993608404175111E-002
   1.7998516276138091E-002
   1.7994796361784988E-002
   1.8009381495024717E-002
   1.7999562607276920E-002
   1.7997871001839652E-002
   1.7993608404173682E-002
   1.7999562607277735E-002
   1.8035104517746373E-002
   3.5999228484656712E-002
   3.5998677943651740E-002
   3.5997038077313255E-002
   3.5995751771951974E-002
   3.5998677943653884E-002
   3.5997479222031774E-002
   3.5989992079333927E-002
   3.5987654660927494E-002
   3.5997038077311007E-002
   3.5989992079332095E-002
   3.6017968327699150E-002
   3.5999529606887050E-002
   3.5995751771958080E-002
   3.5987654660927584E-002
   3.5999529606887799E-002
   3.6067611452459826E-002
   5.9998714990329279E-002
   5.9997800313396306E-002
   5.9995087444824007E-002
   5.9992958774677259E-002
   5.9997800313397166E-002
   5.9995820714492158E-002
   5.9984150703862753E-002
   5.9980334070865692E-002
   5.9995087444822272E-002
   5.9984150703862031E-002
   6.0028309622358278E-002
   5.9999997154131186E-002
   5.9992958774675760E-002
   5.9980334070867038E-002
   5.9999997154131540E-002
   6.0107355349634101E-002
   8.9998076454898657E-002
   8.9996712727756140E-002
   8.9992698030272725E-002
   8.9989544741893190E-002
   8.9996712727757486E-002
   8.9993792513026208E-002
   8.9977656981038392E-002
   8.9972082301815276E-002
   8.9992698030270005E-002
   8.9977656981038573E-002
   9.0039669060067995E-002
   9.0001226306719861E-002
   8.9989544741894439E-002
   8.9972082301815193E-002
   9.0001226306720750E-002
   9.0151884916728514E-002
  0.11999744343925865     
  0.11999564013019415     
  0.11999037908791303     
  0.11998623543013842     
  0.11999564013019538     
  0.11999182990521026     
  0.11997194118011441     
  0.11996468908719098     
  0.11999037908791239     
  0.11997194118011496     
  0.12004954287467463     
  0.12000295007236232     
  0.11998623543013544     
  0.11996468908719170     
  0.12000295007236392     
  0.12019156726058670     
  0.17999619874613801     
  0.17999355524021557     
  0.17998600661685984     
  0.17998007623485549     
  0.17999355524021554     
  0.17998813483044640     
  0.17996253319158845     
  0.17995246505858312     
  0.17998600661685937     
  0.17996253319158809     
  0.18006548733085179     
  0.18000764037876735     
  0.17998007623485257     
  0.17995246505858381     
  0.18000764037876796     
  0.18025693201973222     
  0.23999499546249645     
  0.23999157430537177     
  0.23998201985523815     
  0.23997447306683117     
  0.23999157430537277     
  0.23998479413379842     
  0.23995516435012221     
  0.23994264944016019     
  0.23998201985523751     
  0.23995516435012240     
  0.24007771972654282     
  0.24001282400556970     
  0.23997447306682990     
  0.23994264944016014     
  0.24001282400557111     
  0.24030918046137664     
  0.38999221205981127     
  0.38998720516097007     
  0.38997404129832891     
  0.38996398259042869     
  0.38998720516097074     
  0.38997804748926546     
  0.38994349537181883     
  0.38992770112912378     
  0.38997404129832830     
  0.38994349537181938     
  0.39009643691996554     
  0.39002656876344338     
  0.38996398259042847     
  0.38992770112912334     
  0.39002656876344388     
  0.39039126062988183     
  0.53998984845247322     
  0.53998369112678890     
  0.53996818063434759     
  0.53995626751278702     
  0.53998369112678879     
  0.53997324462553209     
  0.53993686392557638     
  0.53991909935838067     
  0.53996818063434715     
  0.53993686392557660     
  0.54010680484071893     
  0.54003701428057460     
  0.53995626751278691     
  0.53991909935838045     
  0.54003701428057516     
  0.54043860767241214     
  0.83998651714763706     
  0.83997935566930548     
  0.83996236939290114     
  0.83995002892451964     
  0.83997935566930537     
  0.83996803346369098     
  0.83993156529175428     
  0.83991351866598385     
  0.83996236939290092     
  0.83993156529175406     
  0.84011533710151420     
  0.84004990075662545     
  0.83995002892451931     
  0.83991351866598363     
  0.84004990075662567     
  0.84047842773023285     
   1.1399844656823945     
   1.1399768418026954     
   1.1399590733607494     
   1.1399459947859307     
   1.1399768418026957     
   1.1399656183125604     
   1.1399296231288818     
   1.1399113217474066     
   1.1399590733607494     
   1.1399296231288816     
   1.1401184957971164     
   1.1400543942214618     
   1.1399459947859307     
   1.1399113217474066     
   1.1400543942214620     
   1.1404900592540419     
   1.7399837279219295     
   1.7399762787316839     
   1.7399594149512752     
   1.7399476004722649     
   1.7399762787316837     
   1.7399648948728696     
   1.7399297478287836     
   1.7399126472299320     
   1.7399594149512745     
   1.7399297478287834     
   1.7401213499984489     
   1.7400605732349042     
   1.7399476004722645     
   1.7399126472299307     
   1.7400605732349042     
   1.7405028037992532     
   2.3399840113648831     
   2.3399766968785967     
   2.3399603044098778     
   2.3399489196951300     
   2.3399766968785962     
   2.3399653563507066     
   2.3399307045092659     
   2.3399141716139051     
   2.3399603044098782     
   2.3399307045092663     
   2.3401233345118602     
   2.3400638570494681     
   2.3399489196951304     
   2.3399141716139056     
   2.3400638570494703     
   2.3405087756605809     
   2.9999857200620186     
   2.9999790894111023     
   2.9999652540879498     
   2.9999577338170247     
   2.9999790894111023     
   2.9999667495621756     
   2.9999331141653767     
   2.9999196710377900     
   2.9999652540879511     
   2.9999331141653776     
   3.0001279977892668     
   3.0000774142897599     
   2.9999577338170256     
   2.9999196710377904     
   3.0000774142897604     
   3.0005433947251814     
