# vtk DataFile Version 2.0
3D Unstructured Grid of Linear Triangles
ASCII
DATASET UNSTRUCTURED_GRID
FIELD FieldData  1
TIME 1 1 double
      108000.00000
POINTS      256 float
      0.00000000E+00  1.50000000E+00  1.00000007E+00
      5.00000000E-01  1.50000000E+00  1.00000007E+00
      1.00000000E+00  1.50000000E+00  1.00000007E+00
      1.50000000E+00  1.50000000E+00  1.00000007E+00
      0.00000000E+00  1.00000000E+00  1.00000007E+00
      5.00000000E-01  1.00000000E+00  1.00000004E+00
      1.00000000E+00  1.00000000E+00  1.00000003E+00
      1.50000000E+00  1.00000000E+00  1.00000004E+00
      0.00000000E+00  5.00000000E-01  1.00000007E+00
      5.00000000E-01  5.00000000E-01  1.00000003E+00
      1.00000000E+00  5.00000000E-01  9.99666667E-01
      1.50000000E+00  5.00000000E-01  9.99666667E-01
      0.00000000E+00  0.00000000E+00  1.00000007E+00
      5.00000000E-01  0.00000000E+00  1.00000004E+00
      1.00000000E+00  0.00000000E+00  9.99666667E-01
      1.50000000E+00  0.00000000E+00  9.99000000E-01
      0.00000000E+00  1.50000000E+00  9.94000065E-01
      5.00000000E-01  1.50000000E+00  9.94000065E-01
      1.00000000E+00  1.50000000E+00  9.94000065E-01
      1.50000000E+00  1.50000000E+00  9.94000065E-01
      0.00000000E+00  1.00000000E+00  9.94000065E-01
      5.00000000E-01  1.00000000E+00  9.94000043E-01
      1.00000000E+00  1.00000000E+00  9.94000033E-01
      1.50000000E+00  1.00000000E+00  9.94000043E-01
      0.00000000E+00  5.00000000E-01  9.94000065E-01
      5.00000000E-01  5.00000000E-01  9.94000033E-01
      1.00000000E+00  5.00000000E-01  9.93666667E-01
      1.50000000E+00  5.00000000E-01  9.93666667E-01
      0.00000000E+00  0.00000000E+00  9.94000065E-01
      5.00000000E-01  0.00000000E+00  9.94000043E-01
      1.00000000E+00  0.00000000E+00  9.93666667E-01
      1.50000000E+00  0.00000000E+00  9.93000000E-01
      0.00000000E+00  1.50000000E+00  9.82000065E-01
      5.00000000E-01  1.50000000E+00  9.82000065E-01
      1.00000000E+00  1.50000000E+00  9.82000065E-01
      1.50000000E+00  1.50000000E+00  9.82000065E-01
      0.00000000E+00  1.00000000E+00  9.82000065E-01
      5.00000000E-01  1.00000000E+00  9.82000043E-01
      1.00000000E+00  1.00000000E+00  9.82000033E-01
      1.50000000E+00  1.00000000E+00  9.82000043E-01
      0.00000000E+00  5.00000000E-01  9.82000065E-01
      5.00000000E-01  5.00000000E-01  9.82000033E-01
      1.00000000E+00  5.00000000E-01  9.81666667E-01
      1.50000000E+00  5.00000000E-01  9.81666667E-01
      0.00000000E+00  0.00000000E+00  9.82000065E-01
      5.00000000E-01  0.00000000E+00  9.82000043E-01
      1.00000000E+00  0.00000000E+00  9.81666667E-01
      1.50000000E+00  0.00000000E+00  9.81000000E-01
      0.00000000E+00  1.50000000E+00  9.64000065E-01
      5.00000000E-01  1.50000000E+00  9.64000065E-01
      1.00000000E+00  1.50000000E+00  9.64000065E-01
      1.50000000E+00  1.50000000E+00  9.64000065E-01
      0.00000000E+00  1.00000000E+00  9.64000065E-01
      5.00000000E-01  1.00000000E+00  9.64000043E-01
      1.00000000E+00  1.00000000E+00  9.64000032E-01
      1.50000000E+00  1.00000000E+00  9.64000043E-01
      0.00000000E+00  5.00000000E-01  9.64000065E-01
      5.00000000E-01  5.00000000E-01  9.64000032E-01
      1.00000000E+00  5.00000000E-01  9.63666667E-01
      1.50000000E+00  5.00000000E-01  9.63666667E-01
      0.00000000E+00  0.00000000E+00  9.64000065E-01
      5.00000000E-01  0.00000000E+00  9.64000043E-01
      1.00000000E+00  0.00000000E+00  9.63666667E-01
      1.50000000E+00  0.00000000E+00  9.63000000E-01
      0.00000000E+00  1.50000000E+00  9.40000065E-01
      5.00000000E-01  1.50000000E+00  9.40000065E-01
      1.00000000E+00  1.50000000E+00  9.40000065E-01
      1.50000000E+00  1.50000000E+00  9.40000065E-01
      0.00000000E+00  1.00000000E+00  9.40000065E-01
      5.00000000E-01  1.00000000E+00  9.40000043E-01
      1.00000000E+00  1.00000000E+00  9.40000032E-01
      1.50000000E+00  1.00000000E+00  9.40000043E-01
      0.00000000E+00  5.00000000E-01  9.40000065E-01
      5.00000000E-01  5.00000000E-01  9.40000032E-01
      1.00000000E+00  5.00000000E-01  9.39666667E-01
      1.50000000E+00  5.00000000E-01  9.39666667E-01
      0.00000000E+00  0.00000000E+00  9.40000065E-01
      5.00000000E-01  0.00000000E+00  9.40000043E-01
      1.00000000E+00  0.00000000E+00  9.39666667E-01
      1.50000000E+00  0.00000000E+00  9.39000000E-01
      0.00000000E+00  1.50000000E+00  9.10000065E-01
      5.00000000E-01  1.50000000E+00  9.10000065E-01
      1.00000000E+00  1.50000000E+00  9.10000065E-01
      1.50000000E+00  1.50000000E+00  9.10000065E-01
      0.00000000E+00  1.00000000E+00  9.10000065E-01
      5.00000000E-01  1.00000000E+00  9.10000043E-01
      1.00000000E+00  1.00000000E+00  9.10000033E-01
      1.50000000E+00  1.00000000E+00  9.10000043E-01
      0.00000000E+00  5.00000000E-01  9.10000065E-01
      5.00000000E-01  5.00000000E-01  9.10000033E-01
      1.00000000E+00  5.00000000E-01  9.09666667E-01
      1.50000000E+00  5.00000000E-01  9.09666667E-01
      0.00000000E+00  0.00000000E+00  9.10000065E-01
      5.00000000E-01  0.00000000E+00  9.10000043E-01
      1.00000000E+00  0.00000000E+00  9.09666667E-01
      1.50000000E+00  0.00000000E+00  9.09000000E-01
      0.00000000E+00  1.50000000E+00  8.80000065E-01
      5.00000000E-01  1.50000000E+00  8.80000065E-01
      1.00000000E+00  1.50000000E+00  8.80000065E-01
      1.50000000E+00  1.50000000E+00  8.80000065E-01
      0.00000000E+00  1.00000000E+00  8.80000065E-01
      5.00000000E-01  1.00000000E+00  8.80000043E-01
      1.00000000E+00  1.00000000E+00  8.80000033E-01
      1.50000000E+00  1.00000000E+00  8.80000043E-01
      0.00000000E+00  5.00000000E-01  8.80000065E-01
      5.00000000E-01  5.00000000E-01  8.80000033E-01
      1.00000000E+00  5.00000000E-01  8.79666667E-01
      1.50000000E+00  5.00000000E-01  8.79666667E-01
      0.00000000E+00  0.00000000E+00  8.80000065E-01
      5.00000000E-01  0.00000000E+00  8.80000043E-01
      1.00000000E+00  0.00000000E+00  8.79666667E-01
      1.50000000E+00  0.00000000E+00  8.79000000E-01
      0.00000000E+00  1.50000000E+00  8.20000065E-01
      5.00000000E-01  1.50000000E+00  8.20000065E-01
      1.00000000E+00  1.50000000E+00  8.20000065E-01
      1.50000000E+00  1.50000000E+00  8.20000065E-01
      0.00000000E+00  1.00000000E+00  8.20000065E-01
      5.00000000E-01  1.00000000E+00  8.20000043E-01
      1.00000000E+00  1.00000000E+00  8.20000033E-01
      1.50000000E+00  1.00000000E+00  8.20000043E-01
      0.00000000E+00  5.00000000E-01  8.20000065E-01
      5.00000000E-01  5.00000000E-01  8.20000033E-01
      1.00000000E+00  5.00000000E-01  8.19666667E-01
      1.50000000E+00  5.00000000E-01  8.19666667E-01
      0.00000000E+00  0.00000000E+00  8.20000065E-01
      5.00000000E-01  0.00000000E+00  8.20000043E-01
      1.00000000E+00  0.00000000E+00  8.19666667E-01
      1.50000000E+00  0.00000000E+00  8.19000000E-01
      0.00000000E+00  1.50000000E+00  7.60000065E-01
      5.00000000E-01  1.50000000E+00  7.60000065E-01
      1.00000000E+00  1.50000000E+00  7.60000065E-01
      1.50000000E+00  1.50000000E+00  7.60000065E-01
      0.00000000E+00  1.00000000E+00  7.60000065E-01
      5.00000000E-01  1.00000000E+00  7.60000043E-01
      1.00000000E+00  1.00000000E+00  7.60000033E-01
      1.50000000E+00  1.00000000E+00  7.60000043E-01
      0.00000000E+00  5.00000000E-01  7.60000065E-01
      5.00000000E-01  5.00000000E-01  7.60000033E-01
      1.00000000E+00  5.00000000E-01  7.59666667E-01
      1.50000000E+00  5.00000000E-01  7.59666667E-01
      0.00000000E+00  0.00000000E+00  7.60000065E-01
      5.00000000E-01  0.00000000E+00  7.60000043E-01
      1.00000000E+00  0.00000000E+00  7.59666667E-01
      1.50000000E+00  0.00000000E+00  7.59000000E-01
      0.00000000E+00  1.50000000E+00  6.10000065E-01
      5.00000000E-01  1.50000000E+00  6.10000065E-01
      1.00000000E+00  1.50000000E+00  6.10000065E-01
      1.50000000E+00  1.50000000E+00  6.10000065E-01
      0.00000000E+00  1.00000000E+00  6.10000065E-01
      5.00000000E-01  1.00000000E+00  6.10000043E-01
      1.00000000E+00  1.00000000E+00  6.10000033E-01
      1.50000000E+00  1.00000000E+00  6.10000043E-01
      0.00000000E+00  5.00000000E-01  6.10000065E-01
      5.00000000E-01  5.00000000E-01  6.10000033E-01
      1.00000000E+00  5.00000000E-01  6.09666667E-01
      1.50000000E+00  5.00000000E-01  6.09666667E-01
      0.00000000E+00  0.00000000E+00  6.10000065E-01
      5.00000000E-01  0.00000000E+00  6.10000043E-01
      1.00000000E+00  0.00000000E+00  6.09666667E-01
      1.50000000E+00  0.00000000E+00  6.09000000E-01
      0.00000000E+00  1.50000000E+00  4.60000065E-01
      5.00000000E-01  1.50000000E+00  4.60000065E-01
      1.00000000E+00  1.50000000E+00  4.60000065E-01
      1.50000000E+00  1.50000000E+00  4.60000065E-01
      0.00000000E+00  1.00000000E+00  4.60000065E-01
      5.00000000E-01  1.00000000E+00  4.60000043E-01
      1.00000000E+00  1.00000000E+00  4.60000032E-01
      1.50000000E+00  1.00000000E+00  4.60000043E-01
      0.00000000E+00  5.00000000E-01  4.60000065E-01
      5.00000000E-01  5.00000000E-01  4.60000032E-01
      1.00000000E+00  5.00000000E-01  4.59666667E-01
      1.50000000E+00  5.00000000E-01  4.59666667E-01
      0.00000000E+00  0.00000000E+00  4.60000065E-01
      5.00000000E-01  0.00000000E+00  4.60000043E-01
      1.00000000E+00  0.00000000E+00  4.59666667E-01
      1.50000000E+00  0.00000000E+00  4.59000000E-01
      0.00000000E+00  1.50000000E+00  1.60000065E-01
      5.00000000E-01  1.50000000E+00  1.60000065E-01
      1.00000000E+00  1.50000000E+00  1.60000065E-01
      1.50000000E+00  1.50000000E+00  1.60000065E-01
      0.00000000E+00  1.00000000E+00  1.60000065E-01
      5.00000000E-01  1.00000000E+00  1.60000043E-01
      1.00000000E+00  1.00000000E+00  1.60000032E-01
      1.50000000E+00  1.00000000E+00  1.60000043E-01
      0.00000000E+00  5.00000000E-01  1.60000065E-01
[...]
POINT_DATA      256
SCALARS pressure float
LOOKUP_TABLE default
  -1.4554073913524149E-002
  -1.4553256715485446E-002
  -1.4552804088763234E-002
  -1.4551729947046607E-002
  -1.4553256715486506E-002
  -1.4552213002449976E-002
  -1.4551746955574789E-002
  -1.4550758088046284E-002
  -1.4552804088760259E-002
  -1.4551746955574731E-002
  -1.4217966958334367E-002
  -1.4217003457612598E-002
  -1.4551729947045110E-002
  -1.4550758088048036E-002
  -1.4217003457615831E-002
  -1.3549718104363307E-002
  -8.5539899595928649E-003
  -8.5532056844116310E-003
  -8.5527531061139681E-003
  -8.5517353213543194E-003
  -8.5532056844115720E-003
  -8.5522181712009235E-003
  -8.5517521836805093E-003
  -8.5508096893708585E-003
  -8.5527531061123027E-003
  -8.5517521836809308E-003
  -8.2179721673280564E-003
  -8.2170538189665649E-003
  -8.5517353213494882E-003
  -8.5508096893725516E-003
  -8.2170538189697100E-003
  -7.5497855016628751E-003
   3.4461321753587832E-003
   3.4468642226337855E-003
   3.4473165568349273E-003
   3.4482637451253308E-003
   3.4468642226347193E-003
   3.4477816631369425E-003
   3.4482473545163900E-003
   3.4491444961374986E-003
   3.4473165568349529E-003
   3.4482473545148322E-003
   3.7820291000714825E-003
   3.7829022110100062E-003
   3.4482637451323989E-003
   3.4491444961344169E-003
   3.7829022110079887E-003
   4.4501576673845319E-003
   2.1446206184070525E-002
   2.1446912967314984E-002
   2.1447364472194683E-002
   2.1448262451210270E-002
   2.1446912967316208E-002
   2.1447782364760196E-002
   2.1448246960038324E-002
   2.1449095904583628E-002
   2.1447364472194860E-002
   2.1448246960036568E-002
   2.1782029387222568E-002
   2.1782854626095059E-002
   2.1448262451217628E-002
   2.1449095904582254E-002
   2.1782854626093254E-002
   2.2450090474035910E-002
   4.5446300788884224E-002
   4.5446975029850449E-002
   4.5447424072501352E-002
   4.5448260752295654E-002
   4.5446975029850512E-002
   4.5447784886165597E-002
   4.5448246486449434E-002
   4.5449035486212562E-002
   4.5447424072501824E-002
   4.5448246486448775E-002
   4.5782028119902403E-002
   4.5782794106965480E-002
   4.5448260752295223E-002
   4.5449035486212659E-002
   4.5782794106963641E-002
   4.6450004493090447E-002
   7.5446412730088064E-002
   7.5447048199173042E-002
   7.5447492240821076E-002
   7.5448258864896284E-002
   7.5447048199173708E-002
   7.5447790220262739E-002
   7.5448245971066363E-002
   7.5448966387070437E-002
   7.5447492240820341E-002
   7.5448245971066599E-002
   7.5782024262410305E-002
   7.5782722870498878E-002
   7.5448258864898421E-002
   7.5448966387069341E-002
   7.5782722870497990E-002
   7.6449902503638381E-002
  0.10544651780361666     
  0.10544711686647405     
  0.10544755405037386     
  0.10544825784519492     
  0.10544711686647466     
  0.10544779753285112     
  0.10544824553131765     
  0.10544890364822947     
  0.10544755405037498     
  0.10544824553131828     
  0.10578201834003068     
  0.10578265617624868     
  0.10544825784519268     
  0.10544890364822937     
  0.10578265617624884     
  0.10644980606119367     
  0.16544671068613917     
  0.16544724150842938     
  0.16544766086373852     
  0.16544825359233645     
  0.16544724150842882     
  0.16544781693567781     
  0.16544824485536766     
  0.16544879557902231     
  0.16544766086373941     
  0.16544824485536735     
  0.16578200149401784     
  0.16578253525118075     
  0.16544825359233409     
  0.16544879557902248     
  0.16578253525118039     
  0.16644963058474394     
  0.22544688061869966     
  0.22544735178876460     
  0.22544774927913150     
  0.22544825244908831     
  0.22544735178876513     
  0.22544784025585213     
  0.22544824439211802     
  0.22544870592357424     
  0.22544774927913194     
  0.22544824439211827     
  0.22578198051208037     
  0.22578242871990556     
  0.22544825244908745     
  0.22544870592357386     
  0.22578242871990634     
  0.22644947364864737     
  0.37544722905717104     
  0.37544757258231659     
  0.37544790625253849     
  0.37544823775334868     
  0.37544757258231698     
  0.37544790773493275     
  0.37544824398433058     
  0.37544854736071492     
  0.37544790625253838     
  0.37544824398433113     
  0.37578191814898459     
  0.37578221640585618     
  0.37544823775334857     
  0.37544854736071442     
  0.37578221640585635     
  0.37644916304825099     
  0.52544748462861601     
  0.52544773772010622     
  0.52544800836423255     
  0.52544823470360102     
  0.52544773772010589     
  0.52544797294722301     
  0.52544824417594860     
  0.52544844481639419     
  0.52544800836423222     
  0.52544824417594860     
  0.52578185748092998     
  0.52578205870861827     
  0.52544823470360069     
  0.52544844481639386     
  0.52578205870861872     
  0.52644892810661970     
  0.82544781325754024     
  0.82544794815311684     
  0.82544811312513999     
  0.82544822162122555     
  0.82544794815311651     
  0.82544807772710616     
  0.82544824547588824     
  0.82544833886328750     
  0.82544811312513966     
  0.82544824547588769     
  0.82578176074697529     
  0.82578186178936341     
  0.82544822162122511     
  0.82544833886328706     
  0.82578186178936364     
  0.82644864062833934     
   1.1254479957382959     
   1.1254480696043923     
   1.1254481658639013     
   1.1254482220322466     
   1.1254480696043920     
   1.1254481467471205     
   1.1254482473933491     
   1.1254482891971520     
   1.1254481658639013     
   1.1254482473933487     
   1.1257816983977635     
   1.1257817492992122     
   1.1254482220322464     
   1.1254482891971520     
   1.1257817492992124     
   1.1264484741616678     
   1.7254481468130871     
   1.7254481699517941     
   1.7254482026961517     
   1.7254482194426286     
   1.7254481699517936     
   1.7254482092196204     
   1.7254482509144156     
   1.7254482564454670     
   1.7254482026961506     
   1.7254482509144151     
   1.7257816463251252     
   1.7257816628341491     
   1.7254482194426282     
   1.7254482564454658     
   1.7257816628341494     
   1.7264483495464609     
   2.3254481960848885     
   2.3254482039319404     
   2.3254482154529659     
   2.3254482211017540     
   2.3254482039319400     
   2.3254482316438416     
   2.3254482534666385     
   2.3254482482249084     
   2.3254482154529668     
   2.3254482534666394     
   2.3257816300586356     
   2.3257816359099426     
   2.3254482211017553     
   2.3254482482249093     
   2.3257816359099457     
   2.3264483099327045     
   2.9854482096728545     
   2.9854482130919142     
   2.9854482186607036     
   2.9854482208771973     
   2.9854482130919147     
   2.9854482377289293     
   2.9854482543829581     
   2.9854482462077745     
   2.9854482186607059     
   2.9854482543829595     
   2.9857816263647297     
   2.9857816297506905     
   2.9854482208772000     
   2.9854482462077758     
   2.9857816297506914     
   2.9864483015469401     
