# vtk DataFile Version 2.0
3D Unstructured Grid of Linear Triangles
ASCII
DATASET UNSTRUCTURED_GRID
FIELD FieldData  1
TIME 1 1 double
           0.01000
POINTS      256 float
      0.00000000E+00  1.50000000E+00  1.00000007E+00
      5.00000000E-01  1.50000000E+00  1.00000007E+00
      1.00000000E+00  1.50000000E+00  1.00000007E+00
      1.50000000E+00  1.50000000E+00  1.00000007E+00
      0.00000000E+00  1.00000000E+00  1.00000007E+00
      5.00000000E-01  1.00000000E+00  1.00000004E+00
      1.00000000E+00  1.00000000E+00  1.00000003E+00
      1.50000000E+00  1.00000000E+00  1.00000004E+00
      0.00000000E+00  5.00000000E-01  1.00000007E+00
      5.00000000E-01  5.00000000E-01  1.00000003E+00
      1.00000000E+00  5.00000000E-01  9.99666667E-01
      1.50000000E+00  5.00000000E-01  9.99666667E-01
      0.00000000E+00  0.00000000E+00  1.00000007E+00
      5.00000000E-01  0.00000000E+00  1.00000004E+00
      1.00000000E+00  0.00000000E+00  9.99666667E-01
      1.50000000E+00  0.00000000E+00  9.99000000E-01
      0.00000000E+00  1.50000000E+00  9.94000065E-01
      5.00000000E-01  1.50000000E+00  9.94000065E-01
      1.00000000E+00  1.50000000E+00  9.94000065E-01
      1.50000000E+00  1.50000000E+00  9.94000065E-01
      0.00000000E+00  1.00000000E+00  9.94000065E-01
      5.00000000E-01  1.00000000E+00  9.94000043E-01
      1.00000000E+00  1.00000000E+00  9.94000033E-01
      1.50000000E+00  1.00000000E+00  9.94000043E-01
      0.00000000E+00  5.00000000E-01  9.94000065E-01
      5.00000000E-01  5.00000000E-01  9.94000033E-01
      1.00000000E+00  5.00000000E-01  9.93666667E-01
      1.50000000E+00  5.00000000E-01  9.93666667E-01
      0.00000000E+00  0.00000000E+00  9.94000065E-01
      5.00000000E-01  0.00000000E+00  9.94000043E-01
      1.00000000E+00  0.00000000E+00  9.93666667E-01
      1.50000000E+00  0.00000000E+00  9.93000000E-01
      0.00000000E+00  1.50000000E+00  9.82000065E-01
      5.00000000E-01  1.50000000E+00  9.82000065E-01
      1.00000000E+00  1.50000000E+00  9.82000065E-01
      1.50000000E+00  1.50000000E+00  9.82000065E-01
      0.00000000E+00  1.00000000E+00  9.82000065E-01
      5.00000000E-01  1.00000000E+00  9.82000043E-01
      1.00000000E+00  1.00000000E+00  9.82000033E-01
      1.50000000E+00  1.00000000E+00  9.82000043E-01
      0.00000000E+00  5.00000000E-01  9.82000065E-01
      5.00000000E-01  5.00000000E-01  9.82000033E-01
      1.00000000E+00  5.00000000E-01  9.81666667E-01
      1.50000000E+00  5.00000000E-01  9.81666667E-01
      0.00000000E+00  0.00000000E+00  9.82000065E-01
      5.00000000E-01  0.00000000E+00  9.82000043E-01
      1.00000000E+00  0.00000000E+00  9.81666667E-01
      1.50000000E+00  0.00000000E+00  9.81000000E-01
      0.00000000E+00  1.50000000E+00  9.64000065E-01
      5.00000000E-01  1.50000000E+00  9.64000065E-01
      1.00000000E+00  1.50000000E+00  9.64000065E-01
      1.50000000E+00  1.50000000E+00  9.64000065E-01
      0.00000000E+00  1.00000000E+00  9.64000065E-01
      5.00000000E-01  1.00000000E+00  9.64000043E-01
      1.00000000E+00  1.00000000E+00  9.64000032E-01
      1.50000000E+00  1.00000000E+00  9.64000043E-01
      0.00000000E+00  5.00000000E-01  9.64000065E-01
      5.00000000E-01  5.00000000E-01  9.64000032E-01
      1.00000000E+00  5.00000000E-01  9.63666667E-01
      1.50000000E+00  5.00000000E-01  9.63666667E-01
      0.00000000E+00  0.00000000E+00  9.64000065E-01
      5.00000000E-01  0.00000000E+00  9.64000043E-01
      1.00000000E+00  0.00000000E+00  9.63666667E-01
      1.50000000E+00  0.00000000E+00  9.63000000E-01
      0.00000000E+00  1.50000000E+00  9.40000065E-01
      5.00000000E-01  1.50000000E+00  9.40000065E-01
      1.00000000E+00  1.50000000E+00  9.40000065E-01
      1.50000000E+00  1.50000000E+00  9.40000065E-01
      0.00000000E+00  1.00000000E+00  9.40000065E-01
      5.00000000E-01  1.00000000E+00  9.40000043E-01
      1.00000000E+00  1.00000000E+00  9.40000032E-01
      1.50000000E+00  1.00000000E+00  9.40000043E-01
      0.00000000E+00  5.00000000E-01  9.40000065E-01
      5.00000000E-01  5.00000000E-01  9.40000032E-01
      1.00000000E+00  5.00000000E-01  9.39666667E-01
      1.50000000E+00  5.00000000E-01  9.39666667E-01
      0.00000000E+00  0.00000000E+00  9.40000065E-01
      5.00000000E-01  0.00000000E+00  9.40000043E-01
      1.00000000E+00  0.00000000E+00  9.39666667E-01
      1.50000000E+00  0.00000000E+00  9.39000000E-01
      0.00000000E+00  1.50000000E+00  9.10000065E-01
      5.00000000E-01  1.50000000E+00  9.10000065E-01
      1.00000000E+00  1.50000000E+00  9.10000065E-01
      1.50000000E+00  1.50000000E+00  9.10000065E-01
      0.00000000E+00  1.00000000E+00  9.10000065E-01
      5.00000000E-01  1.00000000E+00  9.10000043E-01
      1.00000000E+00  1.00000000E+00  9.10000033E-01
      1.50000000E+00  1.00000000E+00  9.10000043E-01
      0.00000000E+00  5.00000000E-01  9.10000065E-01
      5.00000000E-01  5.00000000E-01  9.10000033E-01
      1.00000000E+00  5.00000000E-01  9.09666667E-01
      1.50000000E+00  5.00000000E-01  9.09666667E-01
      0.00000000E+00  0.00000000E+00  9.10000065E-01
      5.00000000E-01  0.00000000E+00  9.10000043E-01
      1.00000000E+00  0.00000000E+00  9.09666667E-01
      1.50000000E+00  0.00000000E+00  9.09000000E-01
      0.00000000E+00  1.50000000E+00  8.80000065E-01
      5.00000000E-01  1.50000000E+00  8.80000065E-01
      1.00000000E+00  1.50000000E+00  8.80000065E-01
      1.50000000E+00  1.50000000E+00  8.80000065E-01
      0.00000000E+00  1.00000000E+00  8.80000065E-01
      5.00000000E-01  1.00000000E+00  8.80000043E-01
      1.00000000E+00  1.00000000E+00  8.80000033E-01
      1.50000000E+00  1.00000000E+00  8.80000043E-01
      0.00000000E+00  5.00000000E-01  8.80000065E-01
      5.00000000E-01  5.00000000E-01  8.80000033E-01
      1.00000000E+00  5.00000000E-01  8.79666667E-01
      1.50000000E+00  5.00000000E-01  8.79666667E-01
      0.00000000E+00  0.00000000E+00  8.80000065E-01
      5.00000000E-01  0.00000000E+00  8.80000043E-01
      1.00000000E+00  0.00000000E+00  8.79666667E-01
      1.50000000E+00  0.00000000E+00  8.79000000E-01
      0.00000000E+00  1.50000000E+00  8.20000065E-01
      5.00000000E-01  1.50000000E+00  8.20000065E-01
      1.00000000E+00  1.50000000E+00  8.20000065E-01
      1.50000000E+00  1.50000000E+00  8.20000065E-01
      0.00000000E+00  1.00000000E+00  8.20000065E-01
      5.00000000E-01  1.00000000E+00  8.20000043E-01
      1.00000000E+00  1.00000000E+00  8.20000033E-01
      1.50000000E+00  1.00000000E+00  8.20000043E-01
      0.00000000E+00  5.00000000E-01  8.20000065E-01
      5.00000000E-01  5.00000000E-01  8.20000033E-01
      1.00000000E+00  5.00000000E-01  8.19666667E-01
      1.50000000E+00  5.00000000E-01  8.19666667E-01
      0.00000000E+00  0.00000000E+00  8.20000065E-01
      5.00000000E-01  0.00000000E+00  8.20000043E-01
      1.00000000E+00  0.00000000E+00  8.19666667E-01
      1.50000000E+00  0.00000000E+00  8.19000000E-01
      0.00000000E+00  1.50000000E+00  7.60000065E-01
      5.00000000E-01  1.50000000E+00  7.60000065E-01
      1.00000000E+00  1.50000000E+00  7.60000065E-01
      1.50000000E+00  1.50000000E+00  7.60000065E-01
      0.00000000E+00  1.00000000E+00  7.60000065E-01
      5.00000000E-01  1.00000000E+00  7.60000043E-01
      1.00000000E+00  1.00000000E+00  7.60000033E-01
      1.50000000E+00  1.00000000E+00  7.60000043E-01
      0.00000000E+00  5.00000000E-01  7.60000065E-01
      5.00000000E-01  5.00000000E-01  7.60000033E-01
      1.00000000E+00  5.00000000E-01  7.59666667E-01
      1.50000000E+00  5.00000000E-01  7.59666667E-01
      0.00000000E+00  0.00000000E+00  7.60000065E-01
      5.00000000E-01  0.00000000E+00  7.60000043E-01
      1.00000000E+00  0.00000000E+00  7.59666667E-01
      1.50000000E+00  0.00000000E+00  7.59000000E-01
      0.00000000E+00  1.50000000E+00  6.10000065E-01
      5.00000000E-01  1.50000000E+00  6.10000065E-01
      1.00000000E+00  1.50000000E+00  6.10000065E-01
      1.50000000E+00  1.50000000E+00  6.10000065E-01
      0.00000000E+00  1.00000000E+00  6.10000065E-01
      5.00000000E-01  1.00000000E+00  6.10000043E-01
      1.00000000E+00  1.00000000E+00  6.10000033E-01
      1.50000000E+00  1.00000000E+00  6.10000043E-01
      0.00000000E+00  5.00000000E-01  6.10000065E-01
      5.00000000E-01  5.00000000E-01  6.10000033E-01
      1.00000000E+00  5.00000000E-01  6.09666667E-01
      1.50000000E+00  5.00000000E-01  6.09666667E-01
      0.00000000E+00  0.00000000E+00  6.10000065E-01
      5.00000000E-01  0.00000000E+00  6.10000043E-01
      1.00000000E+00  0.00000000E+00  6.09666667E-01
      1.50000000E+00  0.00000000E+00  6.09000000E-01
      0.00000000E+00  1.50000000E+00  4.60000065E-01
      5.00000000E-01  1.50000000E+00  4.60000065E-01
      1.00000000E+00  1.50000000E+00  4.60000065E-01
      1.50000000E+00  1.50000000E+00  4.60000065E-01
      0.00000000E+00  1.00000000E+00  4.60000065E-01
      5.00000000E-01  1.00000000E+00  4.60000043E-01
      1.00000000E+00  1.00000000E+00  4.60000032E-01
      1.50000000E+00  1.00000000E+00  4.60000043E-01
      0.00000000E+00  5.00000000E-01  4.60000065E-01
      5.00000000E-01  5.00000000E-01  4.60000032E-01
      1.00000000E+00  5.00000000E-01  4.59666667E-01
      1.50000000E+00  5.00000000E-01  4.59666667E-01
      0.00000000E+00  0.00000000E+00  4.60000065E-01
      5.00000000E-01  0.00000000E+00  4.60000043E-01
      1.00000000E+00  0.00000000E+00  4.59666667E-01
      1.50000000E+00  0.00000000E+00  4.59000000E-01
      0.00000000E+00  1.50000000E+00  1.60000065E-01
      5.00000000E-01  1.50000000E+00  1.60000065E-01
      1.00000000E+00  1.50000000E+00  1.60000065E-01
      1.50000000E+00  1.50000000E+00  1.60000065E-01
      0.00000000E+00  1.00000000E+00  1.60000065E-01
      5.00000000E-01  1.00000000E+00  1.60000043E-01
      1.00000000E+00  1.00000000E+00  1.60000032E-01
      1.50000000E+00  1.00000000E+00  1.60000043E-01
      0.00000000E+00  5.00000000E-01  1.60000065E-01
[...]
POINT_DATA      256
SCALARS pressure float
LOOKUP_TABLE default
   5.4959364250712329E-008
   5.4930561607028643E-008
   5.4844576754350704E-008
   5.4777116093395228E-008
   5.4930561607013204E-008
   5.4867925527162374E-008
   5.4434473100264307E-008
   5.4306012698390782E-008
   5.4844576754373958E-008
   5.4434473100266279E-008
   5.6025156632611570E-008
   5.4929642245536966E-008
   5.4777116093407205E-008
   5.4306012698372750E-008
   5.4929642245505348E-008
   5.8826708139371821E-008
   5.9999254199441911E-003
   5.9998334718161083E-003
   5.9995589676929053E-003
   5.9993436036234341E-003
   5.9998334718172463E-003
   5.9996326149175270E-003
   5.9982723728507345E-003
   5.9978707105176323E-003
   5.9995589676916476E-003
   5.9982723728501854E-003
   6.0032746500349636E-003
   5.9998572443020802E-003
   5.9993436036268038E-003
   5.9978707105176480E-003
   5.9998572443020559E-003
   6.0120693401943363E-003
   1.7999666410865461E-002
   1.7999390731183510E-002
   1.7998568105228603E-002
   1.7997922783142283E-002
   1.7999390731185456E-002
   1.7998788916394486E-002
   1.7994848144474430E-002
   1.7993660140912478E-002
   1.7998568105226015E-002
   1.7994848144472782E-002
   1.8009433267439499E-002
   1.7999614335661707E-002
   1.7997922783147970E-002
   1.7993660140911048E-002
   1.7999614335662523E-002
   1.8035156215621975E-002
   3.5999278299720182E-002
   3.5998727701590523E-002
   3.5997087818758065E-002
   3.5995801424287710E-002
   3.5998727701592667E-002
   3.5997528894703916E-002
   3.5990041734368351E-002
   3.5987704230486334E-002
   3.5997087818755810E-002
   3.5990041734366519E-002
   3.6018017962404975E-002
   3.5999579159802515E-002
   3.5995801424293816E-002
   3.5987704230486424E-002
   3.5999579159803265E-002
   3.6067660947988349E-002
   5.9998762193063951E-002
   5.9997847426077139E-002
   5.9995134530231906E-002
   5.9993005721504580E-002
   5.9997847426077999E-002
   5.9995867694929747E-002
   5.9984197655069529E-002
   5.9980380889503977E-002
   5.9995134530230171E-002
   5.9984197655068808E-002
   6.0028356540250814E-002
   6.0000043945263641E-002
   5.9993005721503082E-002
   5.9980380889505323E-002
   6.0000043945264002E-002
   6.0107402050993519E-002
   8.9998120585140201E-002
   8.9996756729993091E-002
   8.9992741992205721E-002
   8.9989588509100923E-002
   8.9996756729994437E-002
   8.9993836329918600E-002
   8.9977700754639942E-002
   8.9972125889672738E-002
   8.9992741992202988E-002
   8.9977700754640136E-002
   9.0039712784930448E-002
   9.0001269853952834E-002
   8.9989588509102172E-002
   8.9972125889672655E-002
   9.0001269853953708E-002
   9.0151928337598650E-002
  0.11999748470965130     
  0.11999568123365495     
  0.11999042013873906     
  0.11998627622708434     
  0.11999568123365618     
  0.11999187076729616     
  0.11997198198555171     
  0.11996472965097273     
  0.11999042013873842     
  0.11997198198555226     
  0.12004958361700158     
  0.12000299058306997     
  0.11998627622708137     
  0.11996472965097345     
  0.12000299058307155     
  0.12019160760820934     
  0.17999623479556809     
  0.17999359107496551     
  0.17998604237675733     
  0.17998011167827349     
  0.17999359107496549     
  0.17998817036577788     
  0.17996256864642787     
  0.17995250021375866     
  0.17998604237675686     
  0.17996256864642748     
  0.18006552269754039     
  0.18000767545881288     
  0.17998011167827055     
  0.17995250021375933     
  0.18000767545881349     
  0.18025696689323870     
  0.23999502699054637     
  0.23999160556421789     
  0.23998205102123610     
  0.23997450383420507     
  0.23999160556421889     
  0.23998482501653345     
  0.23995519513291530     
  0.23994267984781786     
  0.23998205102123546     
  0.23995519513291552     
  0.24007775040134499     
  0.24001285431993144     
  0.23997450383420380     
  0.23994267984781781     
  0.24001285431993283     
  0.24030921052201540     
  0.38999223440333897     
  0.38998722726257445     
  0.38997406328235740     
  0.38996400425839950     
  0.38998722726257512     
  0.38997806929296081     
  0.38994351705198899     
  0.38992772251138080     
  0.38997406328235679     
  0.38994351705198954     
  0.39009645846944163     
  0.39002659003061962     
  0.38996400425839928     
  0.38992772251138036     
  0.39002659003062018     
  0.39039128167077719     
  0.53998986435089036     
  0.53998370675872243     
  0.53996819614003133     
  0.53995628266640283     
  0.53998370675872231     
  0.53997325992828182     
  0.53993687909637156     
  0.53991911420382754     
  0.53996819614003089     
  0.53993687909637189     
  0.54010681987433951     
  0.54003702900356287     
  0.53995628266640261     
  0.53991911420382732     
  0.54003702900356343     
  0.54043862215948413     
  0.83998652510454153     
  0.83997936349491520     
  0.83996237712555355     
  0.83995003651408051     
  0.83997936349491509     
  0.83996804115238222     
  0.83993157288676934     
  0.83991352612592540     
  0.83996237712555333     
  0.83993157288676912     
  0.84011534460045001     
  0.84004990812821889     
  0.83995003651408018     
  0.83991352612592518     
  0.84004990812821900     
  0.84047843498295693     
   1.1399844696487411     
   1.1399768456530635     
   1.1399590771393191     
   1.1399459984301872     
   1.1399768456530635     
   1.1399656220368204     
   1.1399296267816927     
   1.1399113252789548     
   1.1399590771393191     
   1.1399296267816925     
   1.1401184993783973     
   1.1400543976879651     
   1.1399459984301872     
   1.1399113252789548     
   1.1400543976879651     
   1.1404900626281484     
   1.7399837289881359     
   1.7399762797769109     
   1.7399594159770393     
   1.7399476014786104     
   1.7399762797769107     
   1.7399648958988814     
   1.7399297488358536     
   1.7399126482186000     
   1.7399594159770384     
   1.7399297488358534     
   1.7401213509864637     
   1.7400605742054607     
   1.7399476014786097     
   1.7399126482185987     
   1.7400605742054607     
   1.7405028047513778     
   2.3399840116632538     
   2.3399766971733365     
   2.3399603047008397     
   2.3399489199830863     
   2.3399766971733360     
   2.3399653566423999     
   2.3399307047974762     
   2.3399141718994803     
   2.3399603047008402     
   2.3399307047974767     
   2.3401233347966262     
   2.3400638573318315     
   2.3399489199830872     
   2.3399141718994807     
   2.3400638573318338     
   2.3405087759404375     
   2.9999857201777926     
   2.9999790895322112     
   2.9999652542118227     
   2.9999577339489414     
   2.9999790895322112     
   2.9999667496927143     
   2.9999331142996501     
   2.9999196711839509     
   2.9999652542118240     
   2.9999331142996506     
   3.0001279979275770     
   3.0000774144400864     
   2.9999577339489423     
   2.9999196711839513     
   3.0000774144400868     
   3.0005433948882332     
