# vtk DataFile Version 2.0
3D Unstructured Grid of Linear Triangles
ASCII
DATASET UNSTRUCTURED_GRID
FIELD FieldData  1
TIME 1 1 double
       28805.01532
POINTS      256 float
      0.00000000E+00  3.00000000E+00  1.00000013E+00
      1.00000000E+00  3.00000000E+00  1.00000013E+00
      2.00000000E+00  3.00000000E+00  1.00000013E+00
      3.00000000E+00  3.00000000E+00  1.00000013E+00
      0.00000000E+00  2.00000000E+00  1.00000013E+00
      1.00000000E+00  2.00000000E+00  1.00000009E+00
      2.00000000E+00  2.00000000E+00  1.00000007E+00
      3.00000000E+00  2.00000000E+00  1.00000009E+00
      0.00000000E+00  1.00000000E+00  1.00000013E+00
      1.00000000E+00  1.00000000E+00  1.00000007E+00
      2.00000000E+00  1.00000000E+00  9.99666667E-01
      3.00000000E+00  1.00000000E+00  9.99666667E-01
      0.00000000E+00  0.00000000E+00  1.00000013E+00
      1.00000000E+00  0.00000000E+00  1.00000009E+00
      2.00000000E+00  0.00000000E+00  9.99666667E-01
      3.00000000E+00  0.00000000E+00  9.99000000E-01
      0.00000000E+00  3.00000000E+00  9.94000130E-01
      1.00000000E+00  3.00000000E+00  9.94000130E-01
      2.00000000E+00  3.00000000E+00  9.94000130E-01
      3.00000000E+00  3.00000000E+00  9.94000130E-01
      0.00000000E+00  2.00000000E+00  9.94000130E-01
      1.00000000E+00  2.00000000E+00  9.94000087E-01
      2.00000000E+00  2.00000000E+00  9.94000065E-01
      3.00000000E+00  2.00000000E+00  9.94000087E-01
      0.00000000E+00  1.00000000E+00  9.94000130E-01
      1.00000000E+00  1.00000000E+00  9.94000065E-01
      2.00000000E+00  1.00000000E+00  9.93666667E-01
      3.00000000E+00  1.00000000E+00  9.93666667E-01
      0.00000000E+00  0.00000000E+00  9.94000130E-01
      1.00000000E+00  0.00000000E+00  9.94000087E-01
      2.00000000E+00  0.00000000E+00  9.93666667E-01
      3.00000000E+00  0.00000000E+00  9.93000000E-01
      0.00000000E+00  3.00000000E+00  9.82000130E-01
      1.00000000E+00  3.00000000E+00  9.82000130E-01
      2.00000000E+00  3.00000000E+00  9.82000130E-01
      3.00000000E+00  3.00000000E+00  9.82000130E-01
      0.00000000E+00  2.00000000E+00  9.82000130E-01
      1.00000000E+00  2.00000000E+00  9.82000087E-01
      2.00000000E+00  2.00000000E+00  9.82000065E-01
      3.00000000E+00  2.00000000E+00  9.82000087E-01
      0.00000000E+00  1.00000000E+00  9.82000130E-01
      1.00000000E+00  1.00000000E+00  9.82000065E-01
      2.00000000E+00  1.00000000E+00  9.81666667E-01
      3.00000000E+00  1.00000000E+00  9.81666667E-01
      0.00000000E+00  0.00000000E+00  9.82000130E-01
      1.00000000E+00  0.00000000E+00  9.82000087E-01
      2.00000000E+00  0.00000000E+00  9.81666667E-01
      3.00000000E+00  0.00000000E+00  9.81000000E-01
      0.00000000E+00  3.00000000E+00  9.64000130E-01
      1.00000000E+00  3.00000000E+00  9.64000130E-01
      2.00000000E+00  3.00000000E+00  9.64000130E-01
      3.00000000E+00  3.00000000E+00  9.64000130E-01
      0.00000000E+00  2.00000000E+00  9.64000130E-01
      1.00000000E+00  2.00000000E+00  9.64000087E-01
      2.00000000E+00  2.00000000E+00  9.64000065E-01
      3.00000000E+00  2.00000000E+00  9.64000087E-01
      0.00000000E+00  1.00000000E+00  9.64000130E-01
      1.00000000E+00  1.00000000E+00  9.64000065E-01
      2.00000000E+00  1.00000000E+00  9.63666667E-01
      3.00000000E+00  1.00000000E+00  9.63666667E-01
      0.00000000E+00  0.00000000E+00  9.64000130E-01
      1.00000000E+00  0.00000000E+00  9.64000087E-01
      2.00000000E+00  0.00000000E+00  9.63666667E-01
      3.00000000E+00  0.00000000E+00  9.63000000E-01
      0.00000000E+00  3.00000000E+00  9.40000130E-01
      1.00000000E+00  3.00000000E+00  9.40000130E-01
      2.00000000E+00  3.00000000E+00  9.40000130E-01
      3.00000000E+00  3.00000000E+00  9.40000130E-01
      0.00000000E+00  2.00000000E+00  9.40000130E-01
      1.00000000E+00  2.00000000E+00  9.40000087E-01
      2.00000000E+00  2.00000000E+00  9.40000065E-01
      3.00000000E+00  2.00000000E+00  9.40000087E-01
      0.00000000E+00  1.00000000E+00  9.40000130E-01
      1.00000000E+00  1.00000000E+00  9.40000065E-01
      2.00000000E+00  1.00000000E+00  9.39666667E-01
      3.00000000E+00  1.00000000E+00  9.39666667E-01
      0.00000000E+00  0.00000000E+00  9.40000130E-01
      1.00000000E+00  0.00000000E+00  9.40000087E-01
      2.00000000E+00  0.00000000E+00  9.39666667E-01
      3.00000000E+00  0.00000000E+00  9.39000000E-01
      0.00000000E+00  3.00000000E+00  9.10000130E-01
      1.00000000E+00  3.00000000E+00  9.10000130E-01
      2.00000000E+00  3.00000000E+00  9.10000130E-01
      3.00000000E+00  3.00000000E+00  9.10000130E-01
      0.00000000E+00  2.00000000E+00  9.10000130E-01
      1.00000000E+00  2.00000000E+00  9.10000087E-01
      2.00000000E+00  2.00000000E+00  9.10000065E-01
      3.00000000E+00  2.00000000E+00  9.10000087E-01
      0.00000000E+00  1.00000000E+00  9.10000130E-01
      1.00000000E+00  1.00000000E+00  9.10000065E-01
      2.00000000E+00  1.00000000E+00  9.09666667E-01
      3.00000000E+00  1.00000000E+00  9.09666667E-01
      0.00000000E+00  0.00000000E+00  9.10000130E-01
      1.00000000E+00  0.00000000E+00  9.10000087E-01
      2.00000000E+00  0.00000000E+00  9.09666667E-01
      3.00000000E+00  0.00000000E+00  9.09000000E-01
      0.00000000E+00  3.00000000E+00  8.80000130E-01
      1.00000000E+00  3.00000000E+00  8.80000130E-01
      2.00000000E+00  3.00000000E+00  8.80000130E-01
      3.00000000E+00  3.00000000E+00  8.80000130E-01
      0.00000000E+00  2.00000000E+00  8.80000130E-01
      1.00000000E+00  2.00000000E+00  8.80000087E-01
      2.00000000E+00  2.00000000E+00  8.80000065E-01
      3.00000000E+00  2.00000000E+00  8.80000087E-01
      0.00000000E+00  1.00000000E+00  8.80000130E-01
      1.00000000E+00  1.00000000E+00  8.80000065E-01
      2.00000000E+00  1.00000000E+00  8.79666667E-01
      3.00000000E+00  1.00000000E+00  8.79666667E-01
      0.00000000E+00  0.00000000E+00  8.80000130E-01
      1.00000000E+00  0.00000000E+00  8.80000087E-01
      2.00000000E+00  0.00000000E+00  8.79666667E-01
      3.00000000E+00  0.00000000E+00  8.79000000E-01
      0.00000000E+00  3.00000000E+00  8.20000130E-01
      1.00000000E+00  3.00000000E+00  8.20000130E-01
      2.00000000E+00  3.00000000E+00  8.20000130E-01
      3.00000000E+00  3.00000000E+00  8.20000130E-01
      0.00000000E+00  2.00000000E+00  8.20000130E-01
      1.00000000E+00  2.00000000E+00  8.20000087E-01
      2.00000000E+00  2.00000000E+00  8.20000065E-01
      3.00000000E+00  2.00000000E+00  8.20000087E-01
      0.00000000E+00  1.00000000E+00  8.20000130E-01
      1.00000000E+00  1.00000000E+00  8.20000065E-01
      2.00000000E+00  1.00000000E+00  8.19666667E-01
      3.00000000E+00  1.00000000E+00  8.19666667E-01
      0.00000000E+00  0.00000000E+00  8.20000130E-01
      1.00000000E+00  0.00000000E+00  8.20000087E-01
      2.00000000E+00  0.00000000E+00  8.19666667E-01
      3.00000000E+00  0.00000000E+00  8.19000000E-01
      0.00000000E+00  3.00000000E+00  7.60000130E-01
      1.00000000E+00  3.00000000E+00  7.60000130E-01
      2.00000000E+00  3.00000000E+00  7.60000130E-01
      3.00000000E+00  3.00000000E+00  7.60000130E-01
      0.00000000E+00  2.00000000E+00  7.60000130E-01
      1.00000000E+00  2.00000000E+00  7.60000087E-01
      2.00000000E+00  2.00000000E+00  7.60000065E-01
      3.00000000E+00  2.00000000E+00  7.60000087E-01
      0.00000000E+00  1.00000000E+00  7.60000130E-01
      1.00000000E+00  1.00000000E+00  7.60000065E-01
      2.00000000E+00  1.00000000E+00  7.59666667E-01
      3.00000000E+00  1.00000000E+00  7.59666667E-01
      0.00000000E+00  0.00000000E+00  7.60000130E-01
      1.00000000E+00  0.00000000E+00  7.60000087E-01
      2.00000000E+00  0.00000000E+00  7.59666667E-01
      3.00000000E+00  0.00000000E+00  7.59000000E-01
      0.00000000E+00  3.00000000E+00  6.10000130E-01
      1.00000000E+00  3.00000000E+00  6.10000130E-01
      2.00000000E+00  3.00000000E+00  6.10000130E-01
      3.00000000E+00  3.00000000E+00  6.10000130E-01
      0.00000000E+00  2.00000000E+00  6.10000130E-01
      1.00000000E+00  2.00000000E+00  6.10000087E-01
      2.00000000E+00  2.00000000E+00  6.10000065E-01
      3.00000000E+00  2.00000000E+00  6.10000087E-01
      0.00000000E+00  1.00000000E+00  6.10000130E-01
      1.00000000E+00  1.00000000E+00  6.10000065E-01
      2.00000000E+00  1.00000000E+00  6.09666667E-01
      3.00000000E+00  1.00000000E+00  6.09666667E-01
      0.00000000E+00  0.00000000E+00  6.10000130E-01
      1.00000000E+00  0.00000000E+00  6.10000087E-01
      2.00000000E+00  0.00000000E+00  6.09666667E-01
      3.00000000E+00  0.00000000E+00  6.09000000E-01
      0.00000000E+00  3.00000000E+00  4.60000130E-01
      1.00000000E+00  3.00000000E+00  4.60000130E-01
      2.00000000E+00  3.00000000E+00  4.60000130E-01
      3.00000000E+00  3.00000000E+00  4.60000130E-01
      0.00000000E+00  2.00000000E+00  4.60000130E-01
      1.00000000E+00  2.00000000E+00  4.60000087E-01
      2.00000000E+00  2.00000000E+00  4.60000065E-01
      3.00000000E+00  2.00000000E+00  4.60000087E-01
      0.00000000E+00  1.00000000E+00  4.60000130E-01
      1.00000000E+00  1.00000000E+00  4.60000065E-01
      2.00000000E+00  1.00000000E+00  4.59666667E-01
      3.00000000E+00  1.00000000E+00  4.59666667E-01
      0.00000000E+00  0.00000000E+00  4.60000130E-01
      1.00000000E+00  0.00000000E+00  4.60000087E-01
      2.00000000E+00  0.00000000E+00  4.59666667E-01
      3.00000000E+00  0.00000000E+00  4.59000000E-01
      0.00000000E+00  3.00000000E+00  1.60000130E-01
      1.00000000E+00  3.00000000E+00  1.60000130E-01
      2.00000000E+00  3.00000000E+00  1.60000130E-01
      3.00000000E+00  3.00000000E+00  1.60000130E-01
      0.00000000E+00  2.00000000E+00  1.60000130E-01
      1.00000000E+00  2.00000000E+00  1.60000087E-01
      2.00000000E+00  2.00000000E+00  1.60000065E-01
      3.00000000E+00  2.00000000E+00  1.60000087E-01
      0.00000000E+00  1.00000000E+00  1.60000130E-01
[...]
POINT_DATA      256
SCALARS pressure float
LOOKUP_TABLE default
  -150.00001541457056     
  -150.00001085998346     
  -150.00001073936355     
  -150.00000485783707     
  -150.00001085998346     
  -150.00000486044243     
  -150.00000485886721     
  -149.99999913708280     
  -150.00001073936355     
  -150.00000485886721     
  -150.00000485713105     
  -149.99999915653356     
  -150.00000485783707     
  -149.99999913708280     
  -149.99999915653356     
  -149.99993229587798     
  -150.00000000328811     
  -150.00000000185355     
  -150.00000000181970     
  -150.00000000023940     
  -150.00000000185355     
  -150.00000000024693     
  -150.00000000024633     
  -149.99999999239520     
  -150.00000000181970     
  -150.00000000024633     
  -150.00000000023641     
  -149.99999999238099     
  -150.00000000023940     
  -149.99999999239520     
  -149.99999999238099     
  -149.99999994512515     
  -149.99999999999346     
  -149.99999999998022     
  -149.99999999998616     
  -149.99999999970308     
  -149.99999999998022     
  -149.99999999970365     
  -149.99999999970785     
  -149.99999999627437     
  -149.99999999998616     
  -149.99999999970785     
  -149.99999999971496     
  -149.99999999627198     
  -149.99999999970308     
  -149.99999999627437     
  -149.99999999627198     
  -149.99999998815255     
  -149.99999999994068     
  -149.99999999981944     
  -149.99999999981944     
  -149.99999999874944     
  -149.99999999981944     
  -149.99999999874569     
  -149.99999999874581     
  -149.99999999252364     
  -149.99999999981944     
  -149.99999999874581     
  -149.99999999874581     
  -149.99999999250900     
  -149.99999999874944     
  -149.99999999252364     
  -149.99999999250900     
  -149.99999998285523     
  -149.99999999907541     
  -149.99999999802091     
  -149.99999999802699     
  -149.99999999172289     
  -149.99999999802091     
  -149.99999999172286     
  -149.99999999171922     
  -149.99999996877028     
  -149.99999999802699     
  -149.99999999171922     
  -149.99999999171922     
  -149.99999996877159     
  -149.99999999172289     
  -149.99999996877028     
  -149.99999996877159     
  -149.99999994145506     
  -149.99999992185394     
  -149.99999992170228     
  -149.99999992169100     
  -149.99999992140428     
  -149.99999992170228     
  -149.99999992141844     
  -149.99999992139632     
  -149.99999992088152     
  -149.99999992169100     
  -149.99999992139632     
  -149.99999992135091     
  -149.99999992079424     
  -149.99999992140428     
  -149.99999992088152     
  -149.99999992079424     
  -149.99999991995645     
  -149.99999999889553     
  -149.99999998856634     
  -149.99999998854440     
  -149.99999932441182     
  -149.99999998856634     
  -149.99999932503630     
  -149.99999932457558     
  -149.99998229665829     
  -149.99999998854440     
  -149.99999932457558     
  -149.99999932408619     
  -149.99998229247174     
  -149.99999932441182     
  -149.99998229665931     
  -149.99998229245668     
  -149.99992834734073     
  -149.99996319547952     
  -149.99996315234498     
  -149.99996314168186     
  -149.99996304792299     
  -149.99996315234492     
  -149.99996306355067     
  -149.99996303969644     
  -149.99996283311680     
  -149.99996314168186     
  -149.99996303969644     
  -149.99996300413903     
  -149.99996277191099     
  -149.99996304793808     
  -149.99996283311680     
  -149.99996277191099     
  -149.99996243435783     
  -149.99999657467208     
  -149.99997589094812     
  -149.99997584482040     
  -149.99857799726422     
  -149.99997589094812     
  -149.99857876964279     
  -149.99857746810744     
  -149.96816652863959     
  -149.99997584482040     
  -149.99857746810744     
  -149.99857614185072     
  -149.96815502977182     
  -149.99857799726422     
  -149.96816652864217     
  -149.96815502977182     
  -149.88572143458484     
  -147.00265990159312     
  -146.99817947395587     
  -146.99727769617340     
  -146.98567026587438     
  -146.99817947397065     
  -146.98601032977453     
  -146.98294715853217     
  -146.96336912156582     
  -146.99727769618644     
  -146.98294715853217     
  -146.97854237922934     
  -146.95547577455818     
  -146.98567026587202     
  -146.96336912156704     
  -146.95547577455818     
  -146.93661814037532     
  -86.556573538503059     
  -62.730799397867564     
  -62.719836360429440     
  -34.403188982398547     
  -62.730799397873120     
  -34.408425440821752     
  -34.404640437189244     
  -21.824386027215855     
  -62.719836360428204     
  -34.404640437189826     
  -34.401199613846352     
  -21.824097851442922     
  -34.403188982395456     
  -21.824386027215855     
  -21.824097851441348     
  -18.229549887459807     
  -3.2157449499901274     
  -3.2156039825313791     
  -3.2156142271985746     
  -3.2151669869159916     
  -3.2156039825313485     
  -3.2151602416417884     
  -3.2151653158063529     
  -3.2147890751488881     
  -3.2156142271985417     
  -3.2151653158063529     
  -3.2151691286181512     
  -3.2147903067982306     
  -3.2151669869160231     
  -3.2147890751489241     
  -3.2147903067983523     
  -3.2146319684835230     
  -2.0002499233031763     
  -2.0002467527012660     
  -2.0002467557078085     
  -2.0002414567720179     
  -2.0002467527012660     
  -2.0002414545721954     
  -2.0002414681937934     
  -2.0002372164216302     
  -2.0002467557078085     
  -2.0002414681937934     
  -2.0002414335400580     
  -2.0002372169405498     
  -2.0002414567720179     
  -2.0002372164216302     
  -2.0002372169405498     
  -2.0002353423698982     
  -2.0000000269573439     
  -2.0000000250320960     
  -2.0000000248565870     
  -2.0000000214339582     
  -2.0000000250320960     
  -2.0000000215961227     
  -2.0000000214902371     
  -2.0000000183868640     
  -2.0000000248565870     
  -2.0000000214902371     
  -2.0000000214060205     
  -2.0000000183633597     
  -2.0000000214339582     
  -2.0000000183868640     
  -2.0000000183633597     
  -2.0000000169127934     
  -1.9999999879505752     
  -1.9999999879489618     
  -1.9999999881232318     
  -1.9999999869906395     
  -1.9999999879489618     
  -1.9999999868192722     
  -1.9999999875081680     
  -1.9999999830772650     
  -1.9999999881232318     
  -1.9999999875081680     
  -1.9999999885301953     
  -1.9999999851044108     
  -1.9999999869906395     
  -1.9999999830772650     
  -1.9999999851044108     
  -1.9999999806020450     
  -1.9998366649747654     
  -1.9998162491877094     
  -1.9998162456391662     
  -1.9997550104226696     
  -1.9998162491877094     
  -1.9997550157026953     
  -1.9997550069686560     
  -1.9996325638133934     
  -1.9998162456391662     
  -1.9997550069686560     
  -1.9997549975548625     
  -1.9996325480168500     
  -1.9997550104226696     
  -1.9996325638133934     
  -1.9996325480168500     
  -1.9995101102882484     
SCALARS saturation float
LOOKUP_TABLE default
  0.28746144470268109     
  0.28746144490847825     
  0.28746144491392844     
  0.28746144517968286     
  0.28746144490847825     
  0.28746144517956512     
  0.28746144517963629     
  0.28746144543817292     
  0.28746144491392844     
  0.28746144517963629     
  0.28746144517971473     
  0.28746144543729407     
  0.28746144517968286     
  0.28746144543817292     
  0.28746144543729407     
  0.28746144845836741     
  0.28746144539903379     
  0.28746144539909851     
  0.28746144539910007     
  0.28746144539917151     
  0.28746144539909851     
  0.28746144539917090     
  0.28746144539917090     
  0.28746144539952589     
  0.28746144539910007     
  0.28746144539917090     
  0.28746144539917140     
  0.28746144539952656     
  0.28746144539917151     
  0.28746144539952589     
  0.28746144539952656     
  0.28746144540166185     
  0.28746144539918267     
  0.28746144539918317     
  0.28746144539918289     
  0.28746144539919571     
  0.28746144539918317     
  0.28746144539919544     
  0.28746144539919527     
  0.28746144539935059     
  0.28746144539918289     
  0.28746144539919527     
  0.28746144539919494     
  0.28746144539935070     
  0.28746144539919571     
  0.28746144539935059     
  0.28746144539935070     
  0.28746144539971769     
  0.28746144539918506     
  0.28746144539919044     
  0.28746144539919044     
  0.28746144539923879     
  0.28746144539919044     
  0.28746144539923874     
  0.28746144539923874     
  0.28746144539952007     
  0.28746144539919044     
  0.28746144539923874     
  0.28746144539923874     
  0.28746144539952073     
  0.28746144539923879     
  0.28746144539952007     
  0.28746144539952073     
  0.28746144539995705     
  0.28746144539922414     
  0.28746144539927171     
  0.28746144539927143     
  0.28746144539955631     
  0.28746144539927171     
  0.28746144539955604     
  0.28746144539955620     
  0.28746144540059337     
  0.28746144539927143     
  0.28746144539955620     
  0.28746144539955620     
  0.28746144540059332     
  0.28746144539955631     
  0.28746144540059337     
  0.28746144540059332     
  0.28746144540182766     
  0.28746144540271334     
  0.28746144540272012     
  0.28746144540272062     
  0.28746144540273361     
  0.28746144540272012     
  0.28746144540273272     
  0.28746144540273372     
  0.28746144540275720     
  0.28746144540272062     
  0.28746144540273372     
  0.28746144540273577     
  0.28746144540276114     
  0.28746144540273361     
  0.28746144540275720     
  0.28746144540276114     
  0.28746144540279911     
  0.28746144539923224     
  0.28746144539969892     
  0.28746144539969987     
  0.28746144542970847     
  0.28746144539969892     
  0.28746144542968000     
  0.28746144542970087     
  0.28746144619910086     
  0.28746144539969987     
  0.28746144542970087     
  0.28746144542972296     
  0.28746144619929004     
  0.28746144542970847     
  0.28746144619910080     
  0.28746144619929070     
  0.28746144863678064     
  0.28746144706218041     
  0.28746144706412935     
  0.28746144706461113     
  0.28746144706884763     
  0.28746144706412935     
  0.28746144706814125     
  0.28746144706921911     
  0.28746144707855353     
  0.28746144706461113     
  0.28746144706921911     
  0.28746144707082572     
  0.28746144708131910     
  0.28746144706884696     
  0.28746144707855353     
  0.28746144708131910     
  0.28746144709657140     
  0.28746144555395448     
  0.28746144648854038     
  0.28746144649062466     
  0.28746150965225958     
  0.28746144648854038     
  0.28746150961735922     
  0.28746150967616940     
  0.28746288400490277     
  0.28746144649062466     
  0.28746150967616940     
  0.28746150973609663     
  0.28746288452463564     
  0.28746150965225958     
  0.28746288400490266     
  0.28746288452463564     
  0.28746661190463818     
  0.28759888753590584     
  0.28759909604164291     
  0.28759913800881259     
  0.28759967823199117     
  0.28759909604164224     
  0.28759966240413959     
  0.28759980497756399     
  0.28760071632775108     
  0.28759913800881198     
  0.28759980497756399     
  0.28760001000291585     
  0.28760108381019700     
  0.28759967823199128     
  0.28760071632775103     
  0.28760108381019700     
  0.28760196186237053     
  0.29170171403528489     
  0.29473043346862005     
  0.29473220252568516     
  0.30173328004456546     
  0.29473043346861916     
  0.30173124946150320     
  0.30173271715721622     
  0.30848791760959704     
  0.29473220252568538     
  0.30173271715721600     
  0.30173405159608285     
  0.30848813480579290     
  0.30173328004456662     
  0.30848791760959704     
  0.30848813480579407     
  0.31157439458071118     
  0.35898958455369412     
  0.35899132207284179     
  0.35899119579665706     
  0.35899670904470371     
  0.35899132207284212     
  0.35899679220402214     
  0.35899672964700580     
  0.35900136853353226     
  0.35899119579665745     
  0.35899672964700580     
  0.35899668264071610     
  0.35900135334653105     
  0.35899670904470338     
  0.35900136853353182     
  0.35900135334652949     
  0.35900330582582818     
  0.38000618230127226     
  0.38000626034351070     
  0.38000626026950662     
  0.38000639069965741     
  0.38000626034351070     
  0.38000639075380438     
  0.38000639041851625     
  0.38000649507372064     
  0.38000626026950662     
  0.38000639041851625     
  0.38000639127149893     
  0.38000649506094764     
  0.38000639069965741     
  0.38000649507372064     
  0.38000649506094764     
  0.38000654120265148     
  0.38001233388439237     
  0.38001233393178946     
  0.38001233393611028     
  0.38001233402037132     
  0.38001233393178946     
  0.38001233401637857     
  0.38001233401898538     
  0.38001233409538693     
  0.38001233393611028     
  0.38001233401898538     
  0.38001233402105866     
  0.38001233409596558     
  0.38001233402037132     
  0.38001233409538693     
  0.38001233409596558     
  0.38001233413167690     
  0.38001233484469132     
  0.38001233484473090     
  0.38001233484044061     
  0.38001233486832375     
  0.38001233484473090     
  0.38001233487254216     
  0.38001233485558239     
  0.38001233496466613     
  0.38001233484044061     
  0.38001233485558239     
  0.38001233483042129     
  0.38001233491476027     
  0.38001233486832375     
  0.38001233496466613     
  0.38001233491476027     
  0.38001233502560317     
  0.38001635589577654     
  0.38001685857099177     
  0.38001685865836421     
  0.38001836642979248     
  0.38001685857099177     
  0.38001836629978142     
  0.38001836651484117     
  0.38002138158760346     
  0.38001685865836421     
  0.38001836651484117     
  0.38001836674663858     
  0.38002138197659907     
  0.38001836642979248     
  0.38002138158760346     
  0.38002138197659907     
  0.38002439718449377     
CELL_DATA      810
SCALARS permeability float
LOOKUP_TABLE default
   1.8799999999999999E-004
   1.8799999999999999E-004
   1.8799999999999999E-004
   1.8799999999999999E-004
   1.8799999999999999E-004
   1.8799999999999999E-004
   1.8799999999999999E-004
   1.8799999999999999E-004
   1.8799999999999999E-004
   1.8799999999999999E-004
   1.8799999999999999E-004
   1.8799999999999999E-004
   1.8799999999999999E-004
   1.8799999999999999E-004
   1.8799999999999999E-004
   1.8799999999999999E-004
   1.8799999999999999E-004
   1.8799999999999999E-004
   1.8799999999999999E-004
   1.8799999999999999E-004
   1.8799999999999999E-004
   1.8799999999999999E-004
   1.8799999999999999E-004
   1.8799999999999999E-004
   1.8799999999999999E-004
   1.8799999999999999E-004
   1.8799999999999999E-004
   1.8799999999999999E-004
   1.8799999999999999E-004
   1.8799999999999999E-004
   1.8799999999999999E-004
   1.8799999999999999E-004
   1.8799999999999999E-004
   1.8799999999999999E-004
   1.8799999999999999E-004
   1.8799999999999999E-004
   1.8799999999999999E-004
   1.8799999999999999E-004
   1.8799999999999999E-004
   1.8799999999999999E-004
   1.8799999999999999E-004
   1.8799999999999999E-004
   1.8799999999999999E-004
   1.8799999999999999E-004
   1.8799999999999999E-004
   1.8799999999999999E-004
   1.8799999999999999E-004
   1.8799999999999999E-004
   1.8799999999999999E-004
   1.8799999999999999E-004
   1.8799999999999999E-004
   1.8799999999999999E-004
   1.8799999999999999E-004
   1.8799999999999999E-004
   1.8799999999999999E-004
   1.8799999999999999E-004
   1.8799999999999999E-004
   1.8799999999999999E-004
   1.8799999999999999E-004
   1.8799999999999999E-004
   1.8799999999999999E-004
   1.8799999999999999E-004
   1.8799999999999999E-004
   1.8799999999999999E-004
   1.8799999999999999E-004
   1.8799999999999999E-004
   1.8799999999999999E-004
   1.8799999999999999E-004
   1.8799999999999999E-004
   1.8799999999999999E-004
   1.8799999999999999E-004
   1.8799999999999999E-004
   1.8799999999999999E-004
   1.8799999999999999E-004
   1.8799999999999999E-004
   1.8799999999999999E-004
   1.8799999999999999E-004
   1.8799999999999999E-004
   1.8799999999999999E-004
   1.8799999999999999E-004
   1.8799999999999999E-004
   1.8799999999999999E-004
   1.8799999999999999E-004
   1.8799999999999999E-004
   1.8799999999999999E-004
   1.8799999999999999E-004
   1.8799999999999999E-004
   1.8799999999999999E-004
   1.8799999999999999E-004
   1.8799999999999999E-004
   1.8799999999999999E-004
   1.8799999999999999E-004
   1.8799999999999999E-004
   1.8799999999999999E-004
   1.8799999999999999E-004
   1.8799999999999999E-004
   1.8799999999999999E-004
   1.8799999999999999E-004
   1.8799999999999999E-004
   1.8799999999999999E-004
   1.8799999999999999E-004
   1.8799999999999999E-004
   1.8799999999999999E-004
   1.8799999999999999E-004
   1.8799999999999999E-004
   1.8799999999999999E-004
   1.8799999999999999E-004
   1.8799999999999999E-004
   1.8799999999999999E-004
   1.8799999999999999E-004
   1.8799999999999999E-004
   1.8799999999999999E-004
   1.8799999999999999E-004
   1.8799999999999999E-004
   1.8799999999999999E-004
   1.8799999999999999E-004
   1.8799999999999999E-004
   1.8799999999999999E-004
   1.8799999999999999E-004
   1.8799999999999999E-004
   1.8799999999999999E-004
   1.8799999999999999E-004
   1.8799999999999999E-004
   1.8799999999999999E-004
   1.8799999999999999E-004
   1.8799999999999999E-004
   1.8799999999999999E-004
   1.8799999999999999E-004
   1.8799999999999999E-004
   1.8799999999999999E-004
   1.8799999999999999E-004
   1.8799999999999999E-004
   1.8799999999999999E-004
   1.8799999999999999E-004
   1.8799999999999999E-004
   1.8799999999999999E-004
   1.8799999999999999E-004
   1.8799999999999999E-004
   1.8799999999999999E-004
   1.8799999999999999E-004
   1.8799999999999999E-004
   1.8799999999999999E-004
   1.8799999999999999E-004
   1.8799999999999999E-004
   1.8799999999999999E-004
   1.8799999999999999E-004
   1.8799999999999999E-004
   1.8799999999999999E-004
   1.8799999999999999E-004
   1.8799999999999999E-004
   1.8799999999999999E-004
   1.8799999999999999E-004
   1.8799999999999999E-004
   1.8799999999999999E-004
   1.8799999999999999E-004
   1.8799999999999999E-004
   1.8799999999999999E-004
   1.8799999999999999E-004
   1.8799999999999999E-004
   1.8799999999999999E-004
   1.8799999999999999E-004
   1.8799999999999999E-004
   1.8799999999999999E-004
   1.8799999999999999E-004
   1.8799999999999999E-004
   1.8799999999999999E-004
   1.8799999999999999E-004
   1.8799999999999999E-004
   1.8799999999999999E-004
   1.8799999999999999E-004
   1.8799999999999999E-004
   1.8799999999999999E-004
   1.8799999999999999E-004
   1.8799999999999999E-004
   1.8799999999999999E-004
   1.8799999999999999E-004
   1.8799999999999999E-004
   1.8799999999999999E-004
   1.8799999999999999E-004
   1.8799999999999999E-004
   1.8799999999999999E-004
   1.8799999999999999E-004
   1.8799999999999999E-004
   1.8799999999999999E-004
   1.8799999999999999E-004
   1.8799999999999999E-004
   1.8799999999999999E-004
   1.8799999999999999E-004
   1.8799999999999999E-004
   1.8799999999999999E-004
   1.8799999999999999E-004
   1.8799999999999999E-004
   1.8799999999999999E-004
   1.8799999999999999E-004
   1.8799999999999999E-004
   1.8799999999999999E-004
   1.8799999999999999E-004
   1.8799999999999999E-004
   1.8799999999999999E-004
   1.8799999999999999E-004
   1.8799999999999999E-004
   1.8799999999999999E-004
   1.8799999999999999E-004
   1.8799999999999999E-004
   1.8799999999999999E-004
   1.8799999999999999E-004
   1.8799999999999999E-004
   1.8799999999999999E-004
   1.8799999999999999E-004
   1.8799999999999999E-004
   1.8799999999999999E-004
   1.8799999999999999E-004
   1.8799999999999999E-004
   1.8799999999999999E-004
   1.8799999999999999E-004
   1.8799999999999999E-004
   1.8799999999999999E-004
   1.8799999999999999E-004
   1.8799999999999999E-004
   1.8799999999999999E-004
   1.8799999999999999E-004
   1.8799999999999999E-004