# vtk DataFile Version 2.0
3D Unstructured Grid of Linear Triangles
ASCII
DATASET UNSTRUCTURED_GRID
FIELD FieldData  1
TIME 1 1 double
       43205.01532
POINTS      256 float
      0.00000000E+00  3.00000000E+00  1.00000013E+00
      1.00000000E+00  3.00000000E+00  1.00000013E+00
      2.00000000E+00  3.00000000E+00  1.00000013E+00
      3.00000000E+00  3.00000000E+00  1.00000013E+00
      0.00000000E+00  2.00000000E+00  1.00000013E+00
      1.00000000E+00  2.00000000E+00  1.00000009E+00
      2.00000000E+00  2.00000000E+00  1.00000007E+00
      3.00000000E+00  2.00000000E+00  1.00000009E+00
      0.00000000E+00  1.00000000E+00  1.00000013E+00
      1.00000000E+00  1.00000000E+00  1.00000007E+00
      2.00000000E+00  1.00000000E+00  9.99666667E-01
      3.00000000E+00  1.00000000E+00  9.99666667E-01
      0.00000000E+00  0.00000000E+00  1.00000013E+00
      1.00000000E+00  0.00000000E+00  1.00000009E+00
      2.00000000E+00  0.00000000E+00  9.99666667E-01
      3.00000000E+00  0.00000000E+00  9.99000000E-01
      0.00000000E+00  3.00000000E+00  9.94000130E-01
      1.00000000E+00  3.00000000E+00  9.94000130E-01
      2.00000000E+00  3.00000000E+00  9.94000130E-01
      3.00000000E+00  3.00000000E+00  9.94000130E-01
      0.00000000E+00  2.00000000E+00  9.94000130E-01
      1.00000000E+00  2.00000000E+00  9.94000087E-01
      2.00000000E+00  2.00000000E+00  9.94000065E-01
      3.00000000E+00  2.00000000E+00  9.94000087E-01
      0.00000000E+00  1.00000000E+00  9.94000130E-01
      1.00000000E+00  1.00000000E+00  9.94000065E-01
      2.00000000E+00  1.00000000E+00  9.93666667E-01
      3.00000000E+00  1.00000000E+00  9.93666667E-01
      0.00000000E+00  0.00000000E+00  9.94000130E-01
      1.00000000E+00  0.00000000E+00  9.94000087E-01
      2.00000000E+00  0.00000000E+00  9.93666667E-01
      3.00000000E+00  0.00000000E+00  9.93000000E-01
      0.00000000E+00  3.00000000E+00  9.82000130E-01
      1.00000000E+00  3.00000000E+00  9.82000130E-01
      2.00000000E+00  3.00000000E+00  9.82000130E-01
      3.00000000E+00  3.00000000E+00  9.82000130E-01
      0.00000000E+00  2.00000000E+00  9.82000130E-01
      1.00000000E+00  2.00000000E+00  9.82000087E-01
      2.00000000E+00  2.00000000E+00  9.82000065E-01
      3.00000000E+00  2.00000000E+00  9.82000087E-01
      0.00000000E+00  1.00000000E+00  9.82000130E-01
      1.00000000E+00  1.00000000E+00  9.82000065E-01
      2.00000000E+00  1.00000000E+00  9.81666667E-01
      3.00000000E+00  1.00000000E+00  9.81666667E-01
      0.00000000E+00  0.00000000E+00  9.82000130E-01
      1.00000000E+00  0.00000000E+00  9.82000087E-01
      2.00000000E+00  0.00000000E+00  9.81666667E-01
      3.00000000E+00  0.00000000E+00  9.81000000E-01
      0.00000000E+00  3.00000000E+00  9.64000130E-01
      1.00000000E+00  3.00000000E+00  9.64000130E-01
      2.00000000E+00  3.00000000E+00  9.64000130E-01
      3.00000000E+00  3.00000000E+00  9.64000130E-01
      0.00000000E+00  2.00000000E+00  9.64000130E-01
      1.00000000E+00  2.00000000E+00  9.64000087E-01
      2.00000000E+00  2.00000000E+00  9.64000065E-01
      3.00000000E+00  2.00000000E+00  9.64000087E-01
      0.00000000E+00  1.00000000E+00  9.64000130E-01
      1.00000000E+00  1.00000000E+00  9.64000065E-01
      2.00000000E+00  1.00000000E+00  9.63666667E-01
      3.00000000E+00  1.00000000E+00  9.63666667E-01
      0.00000000E+00  0.00000000E+00  9.64000130E-01
      1.00000000E+00  0.00000000E+00  9.64000087E-01
      2.00000000E+00  0.00000000E+00  9.63666667E-01
      3.00000000E+00  0.00000000E+00  9.63000000E-01
      0.00000000E+00  3.00000000E+00  9.40000130E-01
      1.00000000E+00  3.00000000E+00  9.40000130E-01
      2.00000000E+00  3.00000000E+00  9.40000130E-01
      3.00000000E+00  3.00000000E+00  9.40000130E-01
      0.00000000E+00  2.00000000E+00  9.40000130E-01
      1.00000000E+00  2.00000000E+00  9.40000087E-01
      2.00000000E+00  2.00000000E+00  9.40000065E-01
      3.00000000E+00  2.00000000E+00  9.40000087E-01
      0.00000000E+00  1.00000000E+00  9.40000130E-01
      1.00000000E+00  1.00000000E+00  9.40000065E-01
      2.00000000E+00  1.00000000E+00  9.39666667E-01
      3.00000000E+00  1.00000000E+00  9.39666667E-01
      0.00000000E+00  0.00000000E+00  9.40000130E-01
      1.00000000E+00  0.00000000E+00  9.40000087E-01
      2.00000000E+00  0.00000000E+00  9.39666667E-01
      3.00000000E+00  0.00000000E+00  9.39000000E-01
      0.00000000E+00  3.00000000E+00  9.10000130E-01
      1.00000000E+00  3.00000000E+00  9.10000130E-01
      2.00000000E+00  3.00000000E+00  9.10000130E-01
      3.00000000E+00  3.00000000E+00  9.10000130E-01
      0.00000000E+00  2.00000000E+00  9.10000130E-01
      1.00000000E+00  2.00000000E+00  9.10000087E-01
      2.00000000E+00  2.00000000E+00  9.10000065E-01
      3.00000000E+00  2.00000000E+00  9.10000087E-01
      0.00000000E+00  1.00000000E+00  9.10000130E-01
      1.00000000E+00  1.00000000E+00  9.10000065E-01
      2.00000000E+00  1.00000000E+00  9.09666667E-01
      3.00000000E+00  1.00000000E+00  9.09666667E-01
      0.00000000E+00  0.00000000E+00  9.10000130E-01
      1.00000000E+00  0.00000000E+00  9.10000087E-01
      2.00000000E+00  0.00000000E+00  9.09666667E-01
      3.00000000E+00  0.00000000E+00  9.09000000E-01
      0.00000000E+00  3.00000000E+00  8.80000130E-01
      1.00000000E+00  3.00000000E+00  8.80000130E-01
      2.00000000E+00  3.00000000E+00  8.80000130E-01
      3.00000000E+00  3.00000000E+00  8.80000130E-01
      0.00000000E+00  2.00000000E+00  8.80000130E-01
      1.00000000E+00  2.00000000E+00  8.80000087E-01
      2.00000000E+00  2.00000000E+00  8.80000065E-01
      3.00000000E+00  2.00000000E+00  8.80000087E-01
      0.00000000E+00  1.00000000E+00  8.80000130E-01
      1.00000000E+00  1.00000000E+00  8.80000065E-01
      2.00000000E+00  1.00000000E+00  8.79666667E-01
      3.00000000E+00  1.00000000E+00  8.79666667E-01
      0.00000000E+00  0.00000000E+00  8.80000130E-01
      1.00000000E+00  0.00000000E+00  8.80000087E-01
      2.00000000E+00  0.00000000E+00  8.79666667E-01
      3.00000000E+00  0.00000000E+00  8.79000000E-01
      0.00000000E+00  3.00000000E+00  8.20000130E-01
      1.00000000E+00  3.00000000E+00  8.20000130E-01
      2.00000000E+00  3.00000000E+00  8.20000130E-01
      3.00000000E+00  3.00000000E+00  8.20000130E-01
      0.00000000E+00  2.00000000E+00  8.20000130E-01
      1.00000000E+00  2.00000000E+00  8.20000087E-01
      2.00000000E+00  2.00000000E+00  8.20000065E-01
      3.00000000E+00  2.00000000E+00  8.20000087E-01
      0.00000000E+00  1.00000000E+00  8.20000130E-01
      1.00000000E+00  1.00000000E+00  8.20000065E-01
      2.00000000E+00  1.00000000E+00  8.19666667E-01
      3.00000000E+00  1.00000000E+00  8.19666667E-01
      0.00000000E+00  0.00000000E+00  8.20000130E-01
      1.00000000E+00  0.00000000E+00  8.20000087E-01
      2.00000000E+00  0.00000000E+00  8.19666667E-01
      3.00000000E+00  0.00000000E+00  8.19000000E-01
      0.00000000E+00  3.00000000E+00  7.60000130E-01
      1.00000000E+00  3.00000000E+00  7.60000130E-01
      2.00000000E+00  3.00000000E+00  7.60000130E-01
      3.00000000E+00  3.00000000E+00  7.60000130E-01
      0.00000000E+00  2.00000000E+00  7.60000130E-01
      1.00000000E+00  2.00000000E+00  7.60000087E-01
      2.00000000E+00  2.00000000E+00  7.60000065E-01
      3.00000000E+00  2.00000000E+00  7.60000087E-01
      0.00000000E+00  1.00000000E+00  7.60000130E-01
      1.00000000E+00  1.00000000E+00  7.60000065E-01
      2.00000000E+00  1.00000000E+00  7.59666667E-01
      3.00000000E+00  1.00000000E+00  7.59666667E-01
      0.00000000E+00  0.00000000E+00  7.60000130E-01
      1.00000000E+00  0.00000000E+00  7.60000087E-01
      2.00000000E+00  0.00000000E+00  7.59666667E-01
      3.00000000E+00  0.00000000E+00  7.59000000E-01
      0.00000000E+00  3.00000000E+00  6.10000130E-01
      1.00000000E+00  3.00000000E+00  6.10000130E-01
      2.00000000E+00  3.00000000E+00  6.10000130E-01
      3.00000000E+00  3.00000000E+00  6.10000130E-01
      0.00000000E+00  2.00000000E+00  6.10000130E-01
      1.00000000E+00  2.00000000E+00  6.10000087E-01
      2.00000000E+00  2.00000000E+00  6.10000065E-01
      3.00000000E+00  2.00000000E+00  6.10000087E-01
      0.00000000E+00  1.00000000E+00  6.10000130E-01
      1.00000000E+00  1.00000000E+00  6.10000065E-01
      2.00000000E+00  1.00000000E+00  6.09666667E-01
      3.00000000E+00  1.00000000E+00  6.09666667E-01
      0.00000000E+00  0.00000000E+00  6.10000130E-01
      1.00000000E+00  0.00000000E+00  6.10000087E-01
      2.00000000E+00  0.00000000E+00  6.09666667E-01
      3.00000000E+00  0.00000000E+00  6.09000000E-01
      0.00000000E+00  3.00000000E+00  4.60000130E-01
      1.00000000E+00  3.00000000E+00  4.60000130E-01
      2.00000000E+00  3.00000000E+00  4.60000130E-01
      3.00000000E+00  3.00000000E+00  4.60000130E-01
      0.00000000E+00  2.00000000E+00  4.60000130E-01
      1.00000000E+00  2.00000000E+00  4.60000087E-01
      2.00000000E+00  2.00000000E+00  4.60000065E-01
      3.00000000E+00  2.00000000E+00  4.60000087E-01
      0.00000000E+00  1.00000000E+00  4.60000130E-01
      1.00000000E+00  1.00000000E+00  4.60000065E-01
      2.00000000E+00  1.00000000E+00  4.59666667E-01
      3.00000000E+00  1.00000000E+00  4.59666667E-01
      0.00000000E+00  0.00000000E+00  4.60000130E-01
      1.00000000E+00  0.00000000E+00  4.60000087E-01
      2.00000000E+00  0.00000000E+00  4.59666667E-01
      3.00000000E+00  0.00000000E+00  4.59000000E-01
      0.00000000E+00  3.00000000E+00  1.60000130E-01
      1.00000000E+00  3.00000000E+00  1.60000130E-01
      2.00000000E+00  3.00000000E+00  1.60000130E-01
      3.00000000E+00  3.00000000E+00  1.60000130E-01
      0.00000000E+00  2.00000000E+00  1.60000130E-01
      1.00000000E+00  2.00000000E+00  1.60000087E-01
      2.00000000E+00  2.00000000E+00  1.60000065E-01
      3.00000000E+00  2.00000000E+00  1.60000087E-01
      0.00000000E+00  1.00000000E+00  1.60000130E-01
[...]
POINT_DATA      256
SCALARS pressure float
LOOKUP_TABLE default
  -150.00003173482301     
  -150.00002311368360     
  -150.00002299329449     
  -150.00001303794491     
  -150.00002311368360     
  -150.00001304052654     
  -150.00001303896263     
  -150.00000527906883     
  -150.00002299329449     
  -150.00001303896263     
  -150.00001303723786     
  -150.00000529849709     
  -150.00001303794491     
  -150.00000527906883     
  -150.00000529849709     
  -149.99993781647001     
  -150.00000001616209     
  -150.00000001052658     
  -150.00000001045922     
  -150.00000000432814     
  -150.00000001052658     
  -150.00000000432689     
  -150.00000000429270     
  -149.99999999331362     
  -150.00000001045922     
  -150.00000000429270     
  -150.00000000429759     
  -149.99999999329302     
  -150.00000000432814     
  -149.99999999331362     
  -149.99999999329302     
  -149.99999991981107     
  -149.99999999999346     
  -149.99999999998022     
  -149.99999999998616     
  -149.99999999970308     
  -149.99999999998022     
  -149.99999999970365     
  -149.99999999970785     
  -149.99999999627437     
  -149.99999999998616     
  -149.99999999970785     
  -149.99999999971496     
  -149.99999999627198     
  -149.99999999970308     
  -149.99999999627437     
  -149.99999999627198     
  -149.99999998815255     
  -149.99999999994068     
  -149.99999999981944     
  -149.99999999981944     
  -149.99999999874944     
  -149.99999999981944     
  -149.99999999874569     
  -149.99999999874581     
  -149.99999999252364     
  -149.99999999981944     
  -149.99999999874581     
  -149.99999999874581     
  -149.99999999250900     
  -149.99999999874944     
  -149.99999999252364     
  -149.99999999250900     
  -149.99999998285523     
  -149.99999999907541     
  -149.99999999802091     
  -149.99999999802699     
  -149.99999999172289     
  -149.99999999802091     
  -149.99999999172286     
  -149.99999999171922     
  -149.99999996877028     
  -149.99999999802699     
  -149.99999999171922     
  -149.99999999171922     
  -149.99999996877159     
  -149.99999999172289     
  -149.99999996877028     
  -149.99999996877159     
  -149.99999994145506     
  -149.99999992185394     
  -149.99999992170228     
  -149.99999992169100     
  -149.99999992140428     
  -149.99999992170228     
  -149.99999992141844     
  -149.99999992139632     
  -149.99999992021333     
  -149.99999992169100     
  -149.99999992139632     
  -149.99999992135091     
  -149.99999992011740     
  -149.99999992140428     
  -149.99999992021333     
  -149.99999992011740     
  -149.99999991791137     
  -149.99999999873643     
  -149.99999998828099     
  -149.99999998825905     
  -149.99999932403955     
  -149.99999998828099     
  -149.99999932466181     
  -149.99999932420332     
  -149.99998229682072     
  -149.99999998825905     
  -149.99999932420332     
  -149.99999932371392     
  -149.99998229263417     
  -149.99999932403955     
  -149.99998229682174     
  -149.99998229261800     
  -149.99992834889102     
  -149.99996319612106     
  -149.99996315274447     
  -149.99996314208107     
  -149.99996303882014     
  -149.99996315274328     
  -149.99996305442437     
  -149.99996303059871     
  -149.99996261611747     
  -149.99996314208107     
  -149.99996303059871     
  -149.99996299506384     
  -149.99996255483879     
  -149.99996303883302     
  -149.99996261611747     
  -149.99996255483879     
  -149.99996165400924     
  -149.99999052887210     
  -149.99997031183827     
  -149.99997026328450     
  -149.99857314782466     
  -149.99997031183827     
  -149.99857392425139     
  -149.99857261559094     
  -149.96816235183968     
  -149.99997026328450     
  -149.99857261559094     
  -149.99857127835361     
  -149.96815083357183     
  -149.99857314782466     
  -149.96816235182803     
  -149.96815083357183     
  -149.88571780777832     
  -147.00251883285131     
  -146.99772254337537     
  -146.99674546738143     
  -146.98202951182651     
  -146.99772254338026     
  -146.98247288299834     
  -146.97843058082967     
  -146.94509630070442     
  -146.99674546738993     
  -146.97843058082967     
  -146.97226847498044     
  -146.93160294196306     
  -146.98202951181472     
  -146.94509630067455     
  -146.93160294197261     
  -146.89210804144048     
  -85.770583364427239     
  -62.280091153271037     
  -62.260360567116152     
  -34.272446500970929     
  -62.280091153283273     
  -34.286558563162025     
  -34.277707217410864     
  -21.779958097066729     
  -62.260360567110020     
  -34.277707217410594     
  -34.269230189280648     
  -21.778458198994652     
  -34.272446500967988     
  -21.779958097067311     
  -21.778458198992276     
  -18.199860838030048     
  -3.2195582915107770     
  -3.2191634241953846     
  -3.2191769291343553     
  -3.2177679569418411     
  -3.2191634241952749     
  -3.2177593372470410     
  -3.2177664005019948     
  -3.2166359530662643     
  -3.2191769291342798     
  -3.2177664005019948     
  -3.2177717583715588     
  -3.2166383096846274     
  -3.2177679569417350     
  -3.2166359530662643     
  -3.2166383096846487     
  -3.2161917094924837     
  -2.0004954236717953     
  -2.0004968514461678     
  -2.0004968699051848     
  -2.0004991220410946     
  -2.0004968514461678     
  -2.0004991072713314     
  -2.0004991429814121     
  -2.0005008889182005     
  -2.0004968699051848     
  -2.0004991429814121     
  -2.0004990739888022     
  -2.0005008912300069     
  -2.0004991220410946     
  -2.0005008889182005     
  -2.0005008912300069     
  -2.0005015228139520     
  -2.0000000982935449     
  -2.0000000929563559     
  -2.0000000927471930     
  -2.0000000825746009     
  -2.0000000929563559     
  -2.0000000827684494     
  -2.0000000826477908     
  -2.0000000728522429     
  -2.0000000927471930     
  -2.0000000826477908     
  -2.0000000825275932     
  -2.0000000728232115     
  -2.0000000825746009     
  -2.0000000728522429     
  -2.0000000728232115     
  -2.0000000680184211     
  -1.9999999729072031     
  -1.9999999729026947     
  -1.9999999732944793     
  -1.9999999707454854     
  -1.9999999729026947     
  -1.9999999703606179     
  -1.9999999719094030     
  -1.9999999619437194     
  -1.9999999732944793     
  -1.9999999719094030     
  -1.9999999742072938     
  -1.9999999665017321     
  -1.9999999707454854     
  -1.9999999619437194     
  -1.9999999665017321     
  -1.9999999563749213     
  -1.9997550285265437     
  -1.9997244095470821     
  -1.9997244015655440     
  -1.9996325719428474     
  -1.9997244095470821     
  -1.9996325838167077     
  -1.9996325641744792     
  -1.9994489662696635     
  -1.9997244015655440     
  -1.9996325641744792     
  -1.9996325430028772     
  -1.9994489307481804     
  -1.9996325719428474     
  -1.9994489662696635     
  -1.9994489307481804     
  -1.9992653450484703     
SCALARS saturation float
LOOKUP_TABLE default
  0.28746144396525708     
  0.28746144435479976     
  0.28746144436023946     
  0.28746144481006797     
  0.28746144435479976     
  0.28746144480995128     
  0.28746144481002195     
  0.28746144516064970     
  0.28746144436023946     
  0.28746144481002195     
  0.28746144481009989     
  0.28746144515977184     
  0.28746144481006797     
  0.28746144516064970     
  0.28746144515977184     
  0.28746144820892150     
  0.28746144539845209     
  0.28746144539870666     
  0.28746144539870966     
  0.28746144539898671     
  0.28746144539870666     
  0.28746144539898655     
  0.28746144539898810     
  0.28746144539948437     
  0.28746144539870966     
  0.28746144539898810     
  0.28746144539898788     
  0.28746144539948532     
  0.28746144539898671     
  0.28746144539948437     
  0.28746144539948532     
  0.28746144540280566     
  0.28746144539918267     
  0.28746144539918317     
  0.28746144539918289     
  0.28746144539919571     
  0.28746144539918317     
  0.28746144539919544     
  0.28746144539919527     
  0.28746144539935059     
  0.28746144539918289     
  0.28746144539919527     
  0.28746144539919494     
  0.28746144539935070     
  0.28746144539919571     
  0.28746144539935059     
  0.28746144539935070     
  0.28746144539971769     
  0.28746144539918506     
  0.28746144539919044     
  0.28746144539919044     
  0.28746144539923879     
  0.28746144539919044     
  0.28746144539923874     
  0.28746144539923874     
  0.28746144539952007     
  0.28746144539919044     
  0.28746144539923874     
  0.28746144539923874     
  0.28746144539952073     
  0.28746144539923879     
  0.28746144539952007     
  0.28746144539952073     
  0.28746144539995705     
  0.28746144539922414     
  0.28746144539927171     
  0.28746144539927143     
  0.28746144539955631     
  0.28746144539927171     
  0.28746144539955604     
  0.28746144539955620     
  0.28746144540059337     
  0.28746144539927143     
  0.28746144539955620     
  0.28746144539955620     
  0.28746144540059332     
  0.28746144539955631     
  0.28746144540059337     
  0.28746144540059332     
  0.28746144540182766     
  0.28746144540271334     
  0.28746144540272012     
  0.28746144540272062     
  0.28746144540273361     
  0.28746144540272012     
  0.28746144540273272     
  0.28746144540273372     
  0.28746144540278740     
  0.28746144540272062     
  0.28746144540273372     
  0.28746144540273577     
  0.28746144540279173     
  0.28746144540273361     
  0.28746144540278740     
  0.28746144540279173     
  0.28746144540289148     
  0.28746144539923946     
  0.28746144539971180     
  0.28746144539971280     
  0.28746144542972529     
  0.28746144539971180     
  0.28746144542969693     
  0.28746144542971763     
  0.28746144619909353     
  0.28746144539971280     
  0.28746144542971763     
  0.28746144542973978     
  0.28746144619928271     
  0.28746144542972529     
  0.28746144619909347     
  0.28746144619928343     
  0.28746144863671058     
  0.28746144706215138     
  0.28746144706411125     
  0.28746144706459309     
  0.28746144706925891     
  0.28746144706411131     
  0.28746144706855359     
  0.28746144706963017     
  0.28746144708835858     
  0.28746144706459309     
  0.28746144706963017     
  0.28746144707123578     
  0.28746144709112742     
  0.28746144706925836     
  0.28746144708835858     
  0.28746144709112742     
  0.28746144713183114     
  0.28746144582713157     
  0.28746144674063034     
  0.28746144674282420     
  0.28746150987138264     
  0.28746144674063034     
  0.28746150983629937     
  0.28746150989543146     
  0.28746288419368832     
  0.28746144674282420     
  0.28746150989543146     
  0.28746150995585484     
  0.28746288471429809     
  0.28746150987138264     
  0.28746288419368887     
  0.28746288471429809     
  0.28746661206869645     
  0.28759889410068284     
  0.28759911730635046     
  0.28759916277799136     
  0.28759984768971103     
  0.28759911730635024     
  0.28759982705281528     
  0.28760001520681344     
  0.28760156708056051     
  0.28759916277799091     
  0.28760001520681344     
  0.28760030204425618     
  0.28760219540853593     
  0.28759984768971159     
  0.28760156708056189     
  0.28760219540853549     
  0.28760403500131215     
  0.29178150075513842     
  0.29480353665482550     
  0.29480675452110550     
  0.30178412582665415     
  0.29480353665482351     
  0.30177862401839556     
  0.30178207446744049     
  0.30852145216627547     
  0.29480675452110650     
  0.30178207446744060     
  0.30178538021890494     
  0.30852258604371180     
  0.30178412582665531     
  0.30852145216627502     
  0.30852258604371358     
  0.31160352950619846     
  0.35894262463090609     
  0.35894748351507311     
  0.35894731732101837     
  0.35896466185076736     
  0.35894748351507449     
  0.35896476799378396     
  0.35896468101675377     
  0.35897860490722477     
  0.35894731732101931     
  0.35896468101675377     
  0.35896461504005112     
  0.35897857587298343     
  0.35896466185076870     
  0.35897860490722477     
  0.35897857587298315     
  0.35898407867454890     
  0.38000014002111737     
  0.38000010488374536     
  0.38000010442947119     
  0.38000004900472667     
  0.38000010488374536     
  0.38000004936820769     
  0.38000004848938840     
  0.38000000552219571     
  0.38000010442947119     
  0.38000004848938840     
  0.38000005018728533     
  0.38000000546530260     
  0.38000004900472667     
  0.38000000552219571     
  0.38000000546530260     
  0.37999998992214790     
  0.38001233212818236     
  0.38001233225957731     
  0.38001233226472664     
  0.38001233251516348     
  0.38001233225957731     
  0.38001233251039074     
  0.38001233251336120     
  0.38001233275451596     
  0.38001233226472664     
  0.38001233251336120     
  0.38001233251632027     
  0.38001233275523066     
  0.38001233251516348     
  0.38001233275451596     
  0.38001233275523066     
  0.38001233287351888     
  0.38001233521504074     
  0.38001233521515160     
  0.38001233520550637     
  0.38001233526825962     
  0.38001233521515160     
  0.38001233527773409     
  0.38001233523960493     
  0.38001233548494817     
  0.38001233520550637     
  0.38001233523960493     
  0.38001233518303362     
  0.38001233537273549     
  0.38001233526825962     
  0.38001233548494817     
  0.38001233537273549     
  0.38001233562204539     
  0.38001836598401778     
  0.38001911992868820     
  0.38001912012522332     
  0.38002138138741270     
  0.38001911992868820     
  0.38002138109501449     
  0.38002138157871146     
  0.38002590304587425     
  0.38001912012522332     
  0.38002138157871146     
  0.38002138210006986     
  0.38002590392072061     
  0.38002138138741270     
  0.38002590304587425     
  0.38002590392072061     
  0.38003042569173318     
CELL_DATA      810
SCALARS permeability float
LOOKUP_TABLE default
   1.8799999999999999E-004
   1.8799999999999999E-004
   1.8799999999999999E-004
   1.8799999999999999E-004
   1.8799999999999999E-004
   1.8799999999999999E-004
   1.8799999999999999E-004
   1.8799999999999999E-004
   1.8799999999999999E-004
   1.8799999999999999E-004
   1.8799999999999999E-004
   1.8799999999999999E-004
   1.8799999999999999E-004
   1.8799999999999999E-004
   1.8799999999999999E-004
   1.8799999999999999E-004
   1.8799999999999999E-004
   1.8799999999999999E-004
   1.8799999999999999E-004
   1.8799999999999999E-004
   1.8799999999999999E-004
   1.8799999999999999E-004
   1.8799999999999999E-004
   1.8799999999999999E-004
   1.8799999999999999E-004
   1.8799999999999999E-004
   1.8799999999999999E-004
   1.8799999999999999E-004
   1.8799999999999999E-004
   1.8799999999999999E-004
   1.8799999999999999E-004
   1.8799999999999999E-004
   1.8799999999999999E-004
   1.8799999999999999E-004
   1.8799999999999999E-004
   1.8799999999999999E-004
   1.8799999999999999E-004
   1.8799999999999999E-004
   1.8799999999999999E-004
   1.8799999999999999E-004
   1.8799999999999999E-004
   1.8799999999999999E-004
   1.8799999999999999E-004
   1.8799999999999999E-004
   1.8799999999999999E-004
   1.8799999999999999E-004
   1.8799999999999999E-004
   1.8799999999999999E-004
   1.8799999999999999E-004
   1.8799999999999999E-004
   1.8799999999999999E-004
   1.8799999999999999E-004
   1.8799999999999999E-004
   1.8799999999999999E-004
   1.8799999999999999E-004
   1.8799999999999999E-004
   1.8799999999999999E-004
   1.8799999999999999E-004
   1.8799999999999999E-004
   1.8799999999999999E-004
   1.8799999999999999E-004
   1.8799999999999999E-004
   1.8799999999999999E-004
   1.8799999999999999E-004
   1.8799999999999999E-004
   1.8799999999999999E-004
   1.8799999999999999E-004
   1.8799999999999999E-004
   1.8799999999999999E-004
   1.8799999999999999E-004
   1.8799999999999999E-004
   1.8799999999999999E-004
   1.8799999999999999E-004
   1.8799999999999999E-004
   1.8799999999999999E-004
   1.8799999999999999E-004
   1.8799999999999999E-004
   1.8799999999999999E-004
   1.8799999999999999E-004
   1.8799999999999999E-004
   1.8799999999999999E-004
   1.8799999999999999E-004
   1.8799999999999999E-004
   1.8799999999999999E-004
   1.8799999999999999E-004
   1.8799999999999999E-004
   1.8799999999999999E-004
   1.8799999999999999E-004
   1.8799999999999999E-004
   1.8799999999999999E-004
   1.8799999999999999E-004
   1.8799999999999999E-004
   1.8799999999999999E-004
   1.8799999999999999E-004
   1.8799999999999999E-004
   1.8799999999999999E-004
   1.8799999999999999E-004
   1.8799999999999999E-004
   1.8799999999999999E-004
   1.8799999999999999E-004
   1.8799999999999999E-004
   1.8799999999999999E-004
   1.8799999999999999E-004
   1.8799999999999999E-004
   1.8799999999999999E-004
   1.8799999999999999E-004
   1.8799999999999999E-004
   1.8799999999999999E-004
   1.8799999999999999E-004
   1.8799999999999999E-004
   1.8799999999999999E-004
   1.8799999999999999E-004
   1.8799999999999999E-004
   1.8799999999999999E-004
   1.8799999999999999E-004
   1.8799999999999999E-004
   1.8799999999999999E-004
   1.8799999999999999E-004
   1.8799999999999999E-004
   1.8799999999999999E-004
   1.8799999999999999E-004
   1.8799999999999999E-004
   1.8799999999999999E-004
   1.8799999999999999E-004
   1.8799999999999999E-004
   1.8799999999999999E-004
   1.8799999999999999E-004
   1.8799999999999999E-004
   1.8799999999999999E-004
   1.8799999999999999E-004
   1.8799999999999999E-004
   1.8799999999999999E-004
   1.8799999999999999E-004
   1.8799999999999999E-004
   1.8799999999999999E-004
   1.8799999999999999E-004
   1.8799999999999999E-004
   1.8799999999999999E-004
   1.8799999999999999E-004
   1.8799999999999999E-004
   1.8799999999999999E-004
   1.8799999999999999E-004
   1.8799999999999999E-004
   1.8799999999999999E-004
   1.8799999999999999E-004
   1.8799999999999999E-004
   1.8799999999999999E-004
   1.8799999999999999E-004
   1.8799999999999999E-004
   1.8799999999999999E-004
   1.8799999999999999E-004
   1.8799999999999999E-004
   1.8799999999999999E-004
   1.8799999999999999E-004
   1.8799999999999999E-004
   1.8799999999999999E-004
   1.8799999999999999E-004
   1.8799999999999999E-004
   1.8799999999999999E-004
   1.8799999999999999E-004
   1.8799999999999999E-004
   1.8799999999999999E-004
   1.8799999999999999E-004
   1.8799999999999999E-004
   1.8799999999999999E-004
   1.8799999999999999E-004
   1.8799999999999999E-004
   1.8799999999999999E-004
   1.8799999999999999E-004
   1.8799999999999999E-004
   1.8799999999999999E-004
   1.8799999999999999E-004
   1.8799999999999999E-004
   1.8799999999999999E-004
   1.8799999999999999E-004
   1.8799999999999999E-004
   1.8799999999999999E-004
   1.8799999999999999E-004
   1.8799999999999999E-004
   1.8799999999999999E-004
   1.8799999999999999E-004
   1.8799999999999999E-004
   1.8799999999999999E-004
   1.8799999999999999E-004
   1.8799999999999999E-004
   1.8799999999999999E-004
   1.8799999999999999E-004
   1.8799999999999999E-004
   1.8799999999999999E-004
   1.8799999999999999E-004
   1.8799999999999999E-004
   1.8799999999999999E-004
   1.8799999999999999E-004
   1.8799999999999999E-004
   1.8799999999999999E-004
   1.8799999999999999E-004
   1.8799999999999999E-004
   1.8799999999999999E-004
   1.8799999999999999E-004
   1.8799999999999999E-004
   1.8799999999999999E-004
   1.8799999999999999E-004
   1.8799999999999999E-004
   1.8799999999999999E-004
   1.8799999999999999E-004
   1.8799999999999999E-004
   1.8799999999999999E-004
   1.8799999999999999E-004
   1.8799999999999999E-004
   1.8799999999999999E-004
   1.8799999999999999E-004
   1.8799999999999999E-004
   1.8799999999999999E-004
   1.8799999999999999E-004
   1.8799999999999999E-004
   1.8799999999999999E-004
   1.8799999999999999E-004
   1.8799999999999999E-004
   1.8799999999999999E-004
   1.8799999999999999E-004
   1.8799999999999999E-004
   1.8799999999999999E-004