# vtk DataFile Version 2.0
3D Unstructured Grid of Linear Triangles
ASCII
DATASET UNSTRUCTURED_GRID
FIELD FieldData  1
TIME 1 1 double
       57605.01532
POINTS      256 float
      0.00000000E+00  3.00000000E+00  1.00000013E+00
      1.00000000E+00  3.00000000E+00  1.00000013E+00
      2.00000000E+00  3.00000000E+00  1.00000013E+00
      3.00000000E+00  3.00000000E+00  1.00000013E+00
      0.00000000E+00  2.00000000E+00  1.00000013E+00
      1.00000000E+00  2.00000000E+00  1.00000009E+00
      2.00000000E+00  2.00000000E+00  1.00000007E+00
      3.00000000E+00  2.00000000E+00  1.00000009E+00
      0.00000000E+00  1.00000000E+00  1.00000013E+00
      1.00000000E+00  1.00000000E+00  1.00000007E+00
      2.00000000E+00  1.00000000E+00  9.99666667E-01
      3.00000000E+00  1.00000000E+00  9.99666667E-01
      0.00000000E+00  0.00000000E+00  1.00000013E+00
      1.00000000E+00  0.00000000E+00  1.00000009E+00
      2.00000000E+00  0.00000000E+00  9.99666667E-01
      3.00000000E+00  0.00000000E+00  9.99000000E-01
      0.00000000E+00  3.00000000E+00  9.94000130E-01
      1.00000000E+00  3.00000000E+00  9.94000130E-01
      2.00000000E+00  3.00000000E+00  9.94000130E-01
      3.00000000E+00  3.00000000E+00  9.94000130E-01
      0.00000000E+00  2.00000000E+00  9.94000130E-01
      1.00000000E+00  2.00000000E+00  9.94000087E-01
      2.00000000E+00  2.00000000E+00  9.94000065E-01
      3.00000000E+00  2.00000000E+00  9.94000087E-01
      0.00000000E+00  1.00000000E+00  9.94000130E-01
      1.00000000E+00  1.00000000E+00  9.94000065E-01
      2.00000000E+00  1.00000000E+00  9.93666667E-01
      3.00000000E+00  1.00000000E+00  9.93666667E-01
      0.00000000E+00  0.00000000E+00  9.94000130E-01
      1.00000000E+00  0.00000000E+00  9.94000087E-01
      2.00000000E+00  0.00000000E+00  9.93666667E-01
      3.00000000E+00  0.00000000E+00  9.93000000E-01
      0.00000000E+00  3.00000000E+00  9.82000130E-01
      1.00000000E+00  3.00000000E+00  9.82000130E-01
      2.00000000E+00  3.00000000E+00  9.82000130E-01
      3.00000000E+00  3.00000000E+00  9.82000130E-01
      0.00000000E+00  2.00000000E+00  9.82000130E-01
      1.00000000E+00  2.00000000E+00  9.82000087E-01
      2.00000000E+00  2.00000000E+00  9.82000065E-01
      3.00000000E+00  2.00000000E+00  9.82000087E-01
      0.00000000E+00  1.00000000E+00  9.82000130E-01
      1.00000000E+00  1.00000000E+00  9.82000065E-01
      2.00000000E+00  1.00000000E+00  9.81666667E-01
      3.00000000E+00  1.00000000E+00  9.81666667E-01
      0.00000000E+00  0.00000000E+00  9.82000130E-01
      1.00000000E+00  0.00000000E+00  9.82000087E-01
      2.00000000E+00  0.00000000E+00  9.81666667E-01
      3.00000000E+00  0.00000000E+00  9.81000000E-01
      0.00000000E+00  3.00000000E+00  9.64000130E-01
      1.00000000E+00  3.00000000E+00  9.64000130E-01
      2.00000000E+00  3.00000000E+00  9.64000130E-01
      3.00000000E+00  3.00000000E+00  9.64000130E-01
      0.00000000E+00  2.00000000E+00  9.64000130E-01
      1.00000000E+00  2.00000000E+00  9.64000087E-01
      2.00000000E+00  2.00000000E+00  9.64000065E-01
      3.00000000E+00  2.00000000E+00  9.64000087E-01
      0.00000000E+00  1.00000000E+00  9.64000130E-01
      1.00000000E+00  1.00000000E+00  9.64000065E-01
      2.00000000E+00  1.00000000E+00  9.63666667E-01
      3.00000000E+00  1.00000000E+00  9.63666667E-01
      0.00000000E+00  0.00000000E+00  9.64000130E-01
      1.00000000E+00  0.00000000E+00  9.64000087E-01
      2.00000000E+00  0.00000000E+00  9.63666667E-01
      3.00000000E+00  0.00000000E+00  9.63000000E-01
      0.00000000E+00  3.00000000E+00  9.40000130E-01
      1.00000000E+00  3.00000000E+00  9.40000130E-01
      2.00000000E+00  3.00000000E+00  9.40000130E-01
      3.00000000E+00  3.00000000E+00  9.40000130E-01
      0.00000000E+00  2.00000000E+00  9.40000130E-01
      1.00000000E+00  2.00000000E+00  9.40000087E-01
      2.00000000E+00  2.00000000E+00  9.40000065E-01
      3.00000000E+00  2.00000000E+00  9.40000087E-01
      0.00000000E+00  1.00000000E+00  9.40000130E-01
      1.00000000E+00  1.00000000E+00  9.40000065E-01
      2.00000000E+00  1.00000000E+00  9.39666667E-01
      3.00000000E+00  1.00000000E+00  9.39666667E-01
      0.00000000E+00  0.00000000E+00  9.40000130E-01
      1.00000000E+00  0.00000000E+00  9.40000087E-01
      2.00000000E+00  0.00000000E+00  9.39666667E-01
      3.00000000E+00  0.00000000E+00  9.39000000E-01
      0.00000000E+00  3.00000000E+00  9.10000130E-01
      1.00000000E+00  3.00000000E+00  9.10000130E-01
      2.00000000E+00  3.00000000E+00  9.10000130E-01
      3.00000000E+00  3.00000000E+00  9.10000130E-01
      0.00000000E+00  2.00000000E+00  9.10000130E-01
      1.00000000E+00  2.00000000E+00  9.10000087E-01
      2.00000000E+00  2.00000000E+00  9.10000065E-01
      3.00000000E+00  2.00000000E+00  9.10000087E-01
      0.00000000E+00  1.00000000E+00  9.10000130E-01
      1.00000000E+00  1.00000000E+00  9.10000065E-01
      2.00000000E+00  1.00000000E+00  9.09666667E-01
      3.00000000E+00  1.00000000E+00  9.09666667E-01
      0.00000000E+00  0.00000000E+00  9.10000130E-01
      1.00000000E+00  0.00000000E+00  9.10000087E-01
      2.00000000E+00  0.00000000E+00  9.09666667E-01
      3.00000000E+00  0.00000000E+00  9.09000000E-01
      0.00000000E+00  3.00000000E+00  8.80000130E-01
      1.00000000E+00  3.00000000E+00  8.80000130E-01
      2.00000000E+00  3.00000000E+00  8.80000130E-01
      3.00000000E+00  3.00000000E+00  8.80000130E-01
      0.00000000E+00  2.00000000E+00  8.80000130E-01
      1.00000000E+00  2.00000000E+00  8.80000087E-01
      2.00000000E+00  2.00000000E+00  8.80000065E-01
      3.00000000E+00  2.00000000E+00  8.80000087E-01
      0.00000000E+00  1.00000000E+00  8.80000130E-01
      1.00000000E+00  1.00000000E+00  8.80000065E-01
      2.00000000E+00  1.00000000E+00  8.79666667E-01
      3.00000000E+00  1.00000000E+00  8.79666667E-01
      0.00000000E+00  0.00000000E+00  8.80000130E-01
      1.00000000E+00  0.00000000E+00  8.80000087E-01
      2.00000000E+00  0.00000000E+00  8.79666667E-01
      3.00000000E+00  0.00000000E+00  8.79000000E-01
      0.00000000E+00  3.00000000E+00  8.20000130E-01
      1.00000000E+00  3.00000000E+00  8.20000130E-01
      2.00000000E+00  3.00000000E+00  8.20000130E-01
      3.00000000E+00  3.00000000E+00  8.20000130E-01
      0.00000000E+00  2.00000000E+00  8.20000130E-01
      1.00000000E+00  2.00000000E+00  8.20000087E-01
      2.00000000E+00  2.00000000E+00  8.20000065E-01
      3.00000000E+00  2.00000000E+00  8.20000087E-01
      0.00000000E+00  1.00000000E+00  8.20000130E-01
      1.00000000E+00  1.00000000E+00  8.20000065E-01
      2.00000000E+00  1.00000000E+00  8.19666667E-01
      3.00000000E+00  1.00000000E+00  8.19666667E-01
      0.00000000E+00  0.00000000E+00  8.20000130E-01
      1.00000000E+00  0.00000000E+00  8.20000087E-01
      2.00000000E+00  0.00000000E+00  8.19666667E-01
      3.00000000E+00  0.00000000E+00  8.19000000E-01
      0.00000000E+00  3.00000000E+00  7.60000130E-01
      1.00000000E+00  3.00000000E+00  7.60000130E-01
      2.00000000E+00  3.00000000E+00  7.60000130E-01
      3.00000000E+00  3.00000000E+00  7.60000130E-01
      0.00000000E+00  2.00000000E+00  7.60000130E-01
      1.00000000E+00  2.00000000E+00  7.60000087E-01
      2.00000000E+00  2.00000000E+00  7.60000065E-01
      3.00000000E+00  2.00000000E+00  7.60000087E-01
      0.00000000E+00  1.00000000E+00  7.60000130E-01
      1.00000000E+00  1.00000000E+00  7.60000065E-01
      2.00000000E+00  1.00000000E+00  7.59666667E-01
      3.00000000E+00  1.00000000E+00  7.59666667E-01
      0.00000000E+00  0.00000000E+00  7.60000130E-01
      1.00000000E+00  0.00000000E+00  7.60000087E-01
      2.00000000E+00  0.00000000E+00  7.59666667E-01
      3.00000000E+00  0.00000000E+00  7.59000000E-01
      0.00000000E+00  3.00000000E+00  6.10000130E-01
      1.00000000E+00  3.00000000E+00  6.10000130E-01
      2.00000000E+00  3.00000000E+00  6.10000130E-01
      3.00000000E+00  3.00000000E+00  6.10000130E-01
      0.00000000E+00  2.00000000E+00  6.10000130E-01
      1.00000000E+00  2.00000000E+00  6.10000087E-01
      2.00000000E+00  2.00000000E+00  6.10000065E-01
      3.00000000E+00  2.00000000E+00  6.10000087E-01
      0.00000000E+00  1.00000000E+00  6.10000130E-01
      1.00000000E+00  1.00000000E+00  6.10000065E-01
      2.00000000E+00  1.00000000E+00  6.09666667E-01
      3.00000000E+00  1.00000000E+00  6.09666667E-01
      0.00000000E+00  0.00000000E+00  6.10000130E-01
      1.00000000E+00  0.00000000E+00  6.10000087E-01
      2.00000000E+00  0.00000000E+00  6.09666667E-01
      3.00000000E+00  0.00000000E+00  6.09000000E-01
      0.00000000E+00  3.00000000E+00  4.60000130E-01
      1.00000000E+00  3.00000000E+00  4.60000130E-01
      2.00000000E+00  3.00000000E+00  4.60000130E-01
      3.00000000E+00  3.00000000E+00  4.60000130E-01
      0.00000000E+00  2.00000000E+00  4.60000130E-01
      1.00000000E+00  2.00000000E+00  4.60000087E-01
      2.00000000E+00  2.00000000E+00  4.60000065E-01
      3.00000000E+00  2.00000000E+00  4.60000087E-01
      0.00000000E+00  1.00000000E+00  4.60000130E-01
      1.00000000E+00  1.00000000E+00  4.60000065E-01
      2.00000000E+00  1.00000000E+00  4.59666667E-01
      3.00000000E+00  1.00000000E+00  4.59666667E-01
      0.00000000E+00  0.00000000E+00  4.60000130E-01
      1.00000000E+00  0.00000000E+00  4.60000087E-01
      2.00000000E+00  0.00000000E+00  4.59666667E-01
      3.00000000E+00  0.00000000E+00  4.59000000E-01
      0.00000000E+00  3.00000000E+00  1.60000130E-01
      1.00000000E+00  3.00000000E+00  1.60000130E-01
      2.00000000E+00  3.00000000E+00  1.60000130E-01
      3.00000000E+00  3.00000000E+00  1.60000130E-01
      0.00000000E+00  2.00000000E+00  1.60000130E-01
      1.00000000E+00  2.00000000E+00  1.60000087E-01
      2.00000000E+00  2.00000000E+00  1.60000065E-01
      3.00000000E+00  2.00000000E+00  1.60000087E-01
      0.00000000E+00  1.00000000E+00  1.60000130E-01
[...]
POINT_DATA      256
SCALARS pressure float
LOOKUP_TABLE default
  -150.00004801063665     
  -150.00003534234071     
  -150.00003522219569     
  -150.00002120688956     
  -150.00003534234071     
  -150.00002120945666     
  -150.00002120789395     
  -150.00001141475914     
  -150.00003522219569     
  -150.00002120789395     
  -150.00002120615929     
  -150.00001143416881     
  -150.00002120688956     
  -150.00001141475914     
  -150.00001143416881     
  -149.99994333202326     
  -150.00000003792155     
  -150.00000002547117     
  -150.00000002534992     
  -150.00000001211689     
  -150.00000002547117     
  -150.00000001211365     
  -150.00000001206206     
  -149.99999999672332     
  -150.00000002534992     
  -150.00000001206206     
  -150.00000001207445     
  -149.99999999672818     
  -150.00000001211689     
  -149.99999999672332     
  -149.99999999672818     
  -149.99999989666503     
  -149.99999999999346     
  -149.99999999998022     
  -149.99999999998616     
  -149.99999999970308     
  -149.99999999998022     
  -149.99999999970365     
  -149.99999999970785     
  -149.99999999627437     
  -149.99999999998616     
  -149.99999999970785     
  -149.99999999971496     
  -149.99999999627198     
  -149.99999999970308     
  -149.99999999627437     
  -149.99999999627198     
  -149.99999998815255     
  -149.99999999994068     
  -149.99999999981944     
  -149.99999999981944     
  -149.99999999874944     
  -149.99999999981944     
  -149.99999999874569     
  -149.99999999874581     
  -149.99999999252364     
  -149.99999999981944     
  -149.99999999874581     
  -149.99999999874581     
  -149.99999999250900     
  -149.99999999874944     
  -149.99999999252364     
  -149.99999999250900     
  -149.99999998285523     
  -149.99999999907541     
  -149.99999999802091     
  -149.99999999802699     
  -149.99999999172289     
  -149.99999999802091     
  -149.99999999172286     
  -149.99999999171922     
  -149.99999996877028     
  -149.99999999802699     
  -149.99999999171922     
  -149.99999999171922     
  -149.99999996877159     
  -149.99999999172289     
  -149.99999996877028     
  -149.99999996877159     
  -149.99999994145506     
  -149.99999992185394     
  -149.99999992170228     
  -149.99999992169100     
  -149.99999992140428     
  -149.99999992170228     
  -149.99999992141844     
  -149.99999992139632     
  -149.99999991953757     
  -149.99999992169100     
  -149.99999992139632     
  -149.99999992135091     
  -149.99999991944597     
  -149.99999992140428     
  -149.99999991953757     
  -149.99999991944597     
  -149.99999991584079     
  -149.99999999857621     
  -149.99999998799348     
  -149.99999998797261     
  -149.99999932366728     
  -149.99999998799348     
  -149.99999932428844     
  -149.99999932383216     
  -149.99998229698426     
  -149.99999998797261     
  -149.99999932383216     
  -149.99999932334055     
  -149.99998229279439     
  -149.99999932366728     
  -149.99998229698528     
  -149.99998229278154     
  -149.99992835049613     
  -149.99996319629818     
  -149.99996315284966     
  -149.99996314218467     
  -149.99996302978900     
  -149.99996315285176     
  -149.99996304538243     
  -149.99996302156342     
  -149.99996239903135     
  -149.99996314218467     
  -149.99996302156342     
  -149.99996298600567     
  -149.99996233780837     
  -149.99996302980506     
  -149.99996239903135     
  -149.99996233780837     
  -149.99996087367421     
  -149.99998448268627     
  -149.99996473187855     
  -149.99996468080059     
  -149.99856829240258     
  -149.99996473187855     
  -149.99856907303263     
  -149.99856775562108     
  -149.96815814839320     
  -149.99996468080059     
  -149.99856775562108     
  -149.99856640443528     
  -149.96814660240662     
  -149.99856829240258     
  -149.96815814836842     
  -149.96814660240662     
  -149.88571411917891     
  -147.00237321186097     
  -146.99725383478855     
  -146.99619937909407     
  -146.97833642030616     
  -146.99725383478619     
  -146.97888824413474     
  -146.97385420224359     
  -146.92668140296777     
  -146.99619937910671     
  -146.97385420224359     
  -146.96591445605551     
  -146.90755053060576     
  -146.97833642029076     
  -146.92668140294973     
  -146.90755053063199     
  -146.84734654447988     
  -85.004638739355769     
  -61.838919982374932     
  -61.810775819263121     
  -34.143345311334549     
  -61.838919982384297     
  -34.166110144049007     
  -34.152310704410745     
  -21.735879382227715     
  -61.810775819261650     
  -34.152310704409764     
  -34.138903393731454     
  -21.733177982447820     
  -34.143345311330592     
  -21.735879382227505     
  -21.733177982446591     
  -18.170373583914042     
  -3.2233228674099688     
  -3.2226836009579913     
  -3.2226999614427871     
  -3.2203484672461453     
  -3.2226836009578985     
  -3.2203388290300321     
  -3.2203479124438399     
  -3.2184714519786897     
  -3.2226999614426814     
  -3.2203479124438399     
  -3.2203552079065170     
  -3.2184755227161417     
  -3.2203484672460032     
  -3.2184714519786737     
  -3.2184755227162860     
  -3.2177429543700464     
  -2.0007412132678564     
  -2.0007472829874260     
  -2.0007473311564494     
  -2.0007570846231237     
  -2.0007472829874260     
  -2.0007570454893453     
  -2.0007571110763798     
  -2.0007647797277479     
  -2.0007473311564494     
  -2.0007571110763798     
  -2.0007570130458490     
  -2.0007647850072194     
  -2.0007570846231237     
  -2.0007647797277479     
  -2.0007647850072194     
  -2.0007678860897089     
  -2.0000002170947888     
  -2.0000002068524672     
  -2.0000002067840903     
  -2.0000001864237653     
  -2.0000002068524672     
  -2.0000001864893737     
  -2.0000001864649830     
  -2.0000001662158011     
  -2.0000002067840903     
  -2.0000001864649830     
  -2.0000001863698733     
  -2.0000001662033222     
  -2.0000001864237653     
  -2.0000001662158011     
  -2.0000001662033222     
  -2.0000001560325900     
  -1.9999999518651947     
  -1.9999999518550127     
  -1.9999999525508541     
  -1.9999999480168669     
  -1.9999999518550127     
  -1.9999999473341927     
  -1.9999999500855445     
  -1.9999999323719864     
  -1.9999999525508541     
  -1.9999999500855445     
  -1.9999999541683235     
  -1.9999999404704882     
  -1.9999999480168669     
  -1.9999999323719864     
  -1.9999999404704882     
  -1.9999999224701697     
  -1.9996734033021577     
  -1.9996325830790942     
  -1.9996325688931296     
  -1.9995101567718321     
  -1.9996325830790942     
  -1.9995101778721607     
  -1.9995101429656548     
  -1.9992654277239108     
  -1.9996325688931296     
  -1.9995101429656548     
  -1.9995101053396205     
  -1.9992653646046825     
  -1.9995101567718321     
  -1.9992654277239108     
  -1.9992653646046825     
  -1.9990206710542544     
SCALARS saturation float
LOOKUP_TABLE default
  0.28746144322984113     
  0.28746144380225286     
  0.28746144380768157     
  0.28746144444095745     
  0.28746144380225286     
  0.28746144444084143     
  0.28746144444091204     
  0.28746144488341102     
  0.28746144380768157     
  0.28746144444091204     
  0.28746144444099042     
  0.28746144488253400     
  0.28746144444095745     
  0.28746144488341102     
  0.28746144488253400     
  0.28746144795970324     
  0.28746144539746887     
  0.28746144539803137     
  0.28746144539803686     
  0.28746144539863483     
  0.28746144539803137     
  0.28746144539863472     
  0.28746144539863705     
  0.28746144539933033     
  0.28746144539803686     
  0.28746144539863705     
  0.28746144539863649     
  0.28746144539933011     
  0.28746144539863483     
  0.28746144539933033     
  0.28746144539933011     
  0.28746144540385149     
  0.28746144539918267     
  0.28746144539918317     
  0.28746144539918289     
  0.28746144539919571     
  0.28746144539918317     
  0.28746144539919544     
  0.28746144539919527     
  0.28746144539935059     
  0.28746144539918289     
  0.28746144539919527     
  0.28746144539919494     
  0.28746144539935070     
  0.28746144539919571     
  0.28746144539935059     
  0.28746144539935070     
  0.28746144539971769     
  0.28746144539918506     
  0.28746144539919044     
  0.28746144539919044     
  0.28746144539923879     
  0.28746144539919044     
  0.28746144539923874     
  0.28746144539923874     
  0.28746144539952007     
  0.28746144539919044     
  0.28746144539923874     
  0.28746144539923874     
  0.28746144539952073     
  0.28746144539923879     
  0.28746144539952007     
  0.28746144539952073     
  0.28746144539995705     
  0.28746144539922414     
  0.28746144539927171     
  0.28746144539927143     
  0.28746144539955631     
  0.28746144539927171     
  0.28746144539955604     
  0.28746144539955620     
  0.28746144540059337     
  0.28746144539927143     
  0.28746144539955620     
  0.28746144539955620     
  0.28746144540059332     
  0.28746144539955631     
  0.28746144540059337     
  0.28746144540059332     
  0.28746144540182766     
  0.28746144540271334     
  0.28746144540272012     
  0.28746144540272062     
  0.28746144540273361     
  0.28746144540272012     
  0.28746144540273272     
  0.28746144540273372     
  0.28746144540281793     
  0.28746144540272062     
  0.28746144540273372     
  0.28746144540273577     
  0.28746144540282209     
  0.28746144540273361     
  0.28746144540281793     
  0.28746144540282209     
  0.28746144540298507     
  0.28746144539924667     
  0.28746144539972479     
  0.28746144539972573     
  0.28746144542974211     
  0.28746144539972479     
  0.28746144542971380     
  0.28746144542973445     
  0.28746144619908615     
  0.28746144539972573     
  0.28746144542973445     
  0.28746144542975666     
  0.28746144619927544     
  0.28746144542974211     
  0.28746144619908609     
  0.28746144619927605     
  0.28746144863663803     
  0.28746144706214338     
  0.28746144706410653     
  0.28746144706458843     
  0.28746144706966703     
  0.28746144706410642     
  0.28746144706896215     
  0.28746144707003840     
  0.28746144709816751     
  0.28746144706458843     
  0.28746144707003840     
  0.28746144707164512     
  0.28746144710093385     
  0.28746144706966625     
  0.28746144709816751     
  0.28746144710093385     
  0.28746144716709027     
  0.28746144610032609     
  0.28746144699275872     
  0.28746144699506665     
  0.28746151009077603     
  0.28746144699275872     
  0.28746151005550280     
  0.28746151011503035     
  0.28746288438367829     
  0.28746144699506665     
  0.28746151011503035     
  0.28746151017608401     
  0.28746288490554089     
  0.28746151009077603     
  0.28746288438367940     
  0.28746288490554089     
  0.28746661223554992     
  0.28759890087731294     
  0.28759913911928503     
  0.28759918819230756     
  0.28760001958972281     
  0.28759913911928514     
  0.28759999390392460     
  0.28760022822918341     
  0.28760242460451424     
  0.28759918819230701     
  0.28760022822918341     
  0.28760059783337277     
  0.28760331563535885     
  0.28760001958972353     
  0.28760242460451507     
  0.28760331563535763     
  0.28760612077471243     
  0.29186028633905675     
  0.29487584487543639     
  0.29488048326948663     
  0.30183461194274269     
  0.29487584487543483     
  0.30182568934083848     
  0.30183109694976290     
  0.30855482196690609     
  0.29488048326948685     
  0.30183109694976323     
  0.30183635395057584     
  0.30855687027471002     
  0.30183461194274425     
  0.30855482196690620     
  0.30855687027471096     
  0.31163253515954570     
  0.35889634470628362     
  0.35890419799163226     
  0.35890399697739717     
  0.35893290404286848     
  0.35890419799163337     
  0.35893302258937843     
  0.35893291086671819     
  0.35895600040226239     
  0.35890399697739850     
  0.35893291086671819     
  0.35893282113553404     
  0.35895595029127242     
  0.35893290404287026     
  0.35895600040226261     
  0.35895595029127059     
  0.35896496973385533     
  0.37999409170360410     
  0.37999394235542838     
  0.37999394117021057     
  0.37999370118317310     
  0.37999394235542838     
  0.37999370214606787     
  0.37999370053228448     
  0.37999351184396646     
  0.37999394117021057     
  0.37999370053228448     
  0.37999370294434726     
  0.37999351171406465     
  0.37999370118317310     
  0.37999351184396646     
  0.37999351171406465     
  0.37999343541176367     
  0.38001232920344125     
  0.38001232945559449     
  0.38001232945727786     
  0.38001232995852419     
  0.38001232945559449     
  0.38001232995690859     
  0.38001232995750905     
  0.38001233045601945     
  0.38001232945727786     
  0.38001232995750905     
  0.38001232995985057     
  0.38001233045632665     
  0.38001232995852419     
  0.38001233045601945     
  0.38001233045632665     
  0.38001233070671775     
  0.38001233573306931     
  0.38001233573331983     
  0.38001233571618909     
  0.38001233582781041     
  0.38001233573331983     
  0.38001233584461658     
  0.38001233577688165     
  0.38001233621296815     
  0.38001233571618909     
  0.38001233577688165     
  0.38001233567636861     
  0.38001233601359297     
  0.38001233582781041     
  0.38001233621296815     
  0.38001233601359297     
  0.38001233645673893     
  0.38002037591532228     
  0.38002138111317862     
  0.38002138146251313     
  0.38002439603971666     
  0.38002138111317862     
  0.38002439552006700     
  0.38002439637972896     
  0.38003042365527617     
  0.38002138146251313     
  0.38002439637972896     
  0.38002439730636628     
  0.38003042521002561     
  0.38002439603971666     
  0.38003042365527617     
  0.38003042521002561     
  0.38003645302541028     
CELL_DATA      810
SCALARS permeability float
LOOKUP_TABLE default
   1.8799999999999999E-004
   1.8799999999999999E-004
   1.8799999999999999E-004
   1.8799999999999999E-004
   1.8799999999999999E-004
   1.8799999999999999E-004
   1.8799999999999999E-004
   1.8799999999999999E-004
   1.8799999999999999E-004
   1.8799999999999999E-004
   1.8799999999999999E-004
   1.8799999999999999E-004
   1.8799999999999999E-004
   1.8799999999999999E-004
   1.8799999999999999E-004
   1.8799999999999999E-004
   1.8799999999999999E-004
   1.8799999999999999E-004
   1.8799999999999999E-004
   1.8799999999999999E-004
   1.8799999999999999E-004
   1.8799999999999999E-004
   1.8799999999999999E-004
   1.8799999999999999E-004
   1.8799999999999999E-004
   1.8799999999999999E-004
   1.8799999999999999E-004
   1.8799999999999999E-004
   1.8799999999999999E-004
   1.8799999999999999E-004
   1.8799999999999999E-004
   1.8799999999999999E-004
   1.8799999999999999E-004
   1.8799999999999999E-004
   1.8799999999999999E-004
   1.8799999999999999E-004
   1.8799999999999999E-004
   1.8799999999999999E-004
   1.8799999999999999E-004
   1.8799999999999999E-004
   1.8799999999999999E-004
   1.8799999999999999E-004
   1.8799999999999999E-004
   1.8799999999999999E-004
   1.8799999999999999E-004
   1.8799999999999999E-004
   1.8799999999999999E-004
   1.8799999999999999E-004
   1.8799999999999999E-004
   1.8799999999999999E-004
   1.8799999999999999E-004
   1.8799999999999999E-004
   1.8799999999999999E-004
   1.8799999999999999E-004
   1.8799999999999999E-004
   1.8799999999999999E-004
   1.8799999999999999E-004
   1.8799999999999999E-004
   1.8799999999999999E-004
   1.8799999999999999E-004
   1.8799999999999999E-004
   1.8799999999999999E-004
   1.8799999999999999E-004
   1.8799999999999999E-004
   1.8799999999999999E-004
   1.8799999999999999E-004
   1.8799999999999999E-004
   1.8799999999999999E-004
   1.8799999999999999E-004
   1.8799999999999999E-004
   1.8799999999999999E-004
   1.8799999999999999E-004
   1.8799999999999999E-004
   1.8799999999999999E-004
   1.8799999999999999E-004
   1.8799999999999999E-004
   1.8799999999999999E-004
   1.8799999999999999E-004
   1.8799999999999999E-004
   1.8799999999999999E-004
   1.8799999999999999E-004
   1.8799999999999999E-004
   1.8799999999999999E-004
   1.8799999999999999E-004
   1.8799999999999999E-004
   1.8799999999999999E-004
   1.8799999999999999E-004
   1.8799999999999999E-004
   1.8799999999999999E-004
   1.8799999999999999E-004
   1.8799999999999999E-004
   1.8799999999999999E-004
   1.8799999999999999E-004
   1.8799999999999999E-004
   1.8799999999999999E-004
   1.8799999999999999E-004
   1.8799999999999999E-004
   1.8799999999999999E-004
   1.8799999999999999E-004
   1.8799999999999999E-004
   1.8799999999999999E-004
   1.8799999999999999E-004
   1.8799999999999999E-004
   1.8799999999999999E-004
   1.8799999999999999E-004
   1.8799999999999999E-004
   1.8799999999999999E-004
   1.8799999999999999E-004
   1.8799999999999999E-004
   1.8799999999999999E-004
   1.8799999999999999E-004
   1.8799999999999999E-004
   1.8799999999999999E-004
   1.8799999999999999E-004
   1.8799999999999999E-004
   1.8799999999999999E-004
   1.8799999999999999E-004
   1.8799999999999999E-004
   1.8799999999999999E-004
   1.8799999999999999E-004
   1.8799999999999999E-004
   1.8799999999999999E-004
   1.8799999999999999E-004
   1.8799999999999999E-004
   1.8799999999999999E-004
   1.8799999999999999E-004
   1.8799999999999999E-004
   1.8799999999999999E-004
   1.8799999999999999E-004
   1.8799999999999999E-004
   1.8799999999999999E-004
   1.8799999999999999E-004
   1.8799999999999999E-004
   1.8799999999999999E-004
   1.8799999999999999E-004
   1.8799999999999999E-004
   1.8799999999999999E-004
   1.8799999999999999E-004
   1.8799999999999999E-004
   1.8799999999999999E-004
   1.8799999999999999E-004
   1.8799999999999999E-004
   1.8799999999999999E-004
   1.8799999999999999E-004
   1.8799999999999999E-004
   1.8799999999999999E-004
   1.8799999999999999E-004
   1.8799999999999999E-004
   1.8799999999999999E-004
   1.8799999999999999E-004
   1.8799999999999999E-004
   1.8799999999999999E-004
   1.8799999999999999E-004
   1.8799999999999999E-004
   1.8799999999999999E-004
   1.8799999999999999E-004
   1.8799999999999999E-004
   1.8799999999999999E-004
   1.8799999999999999E-004
   1.8799999999999999E-004
   1.8799999999999999E-004
   1.8799999999999999E-004
   1.8799999999999999E-004
   1.8799999999999999E-004
   1.8799999999999999E-004
   1.8799999999999999E-004
   1.8799999999999999E-004
   1.8799999999999999E-004
   1.8799999999999999E-004
   1.8799999999999999E-004
   1.8799999999999999E-004
   1.8799999999999999E-004
   1.8799999999999999E-004
   1.8799999999999999E-004
   1.8799999999999999E-004
   1.8799999999999999E-004
   1.8799999999999999E-004
   1.8799999999999999E-004
   1.8799999999999999E-004
   1.8799999999999999E-004
   1.8799999999999999E-004
   1.8799999999999999E-004
   1.8799999999999999E-004
   1.8799999999999999E-004
   1.8799999999999999E-004
   1.8799999999999999E-004
   1.8799999999999999E-004
   1.8799999999999999E-004
   1.8799999999999999E-004
   1.8799999999999999E-004
   1.8799999999999999E-004
   1.8799999999999999E-004
   1.8799999999999999E-004
   1.8799999999999999E-004
   1.8799999999999999E-004
   1.8799999999999999E-004
   1.8799999999999999E-004
   1.8799999999999999E-004
   1.8799999999999999E-004
   1.8799999999999999E-004
   1.8799999999999999E-004
   1.8799999999999999E-004
   1.8799999999999999E-004
   1.8799999999999999E-004
   1.8799999999999999E-004
   1.8799999999999999E-004
   1.8799999999999999E-004
   1.8799999999999999E-004
   1.8799999999999999E-004
   1.8799999999999999E-004
   1.8799999999999999E-004
   1.8799999999999999E-004
   1.8799999999999999E-004
   1.8799999999999999E-004
   1.8799999999999999E-004
   1.8799999999999999E-004
   1.8799999999999999E-004
   1.8799999999999999E-004
   1.8799999999999999E-004
   1.8799999999999999E-004
   1.8799999999999999E-004
   1.8799999999999999E-004