# vtk DataFile Version 2.0
3D Unstructured Grid of Linear Triangles
ASCII
DATASET UNSTRUCTURED_GRID
FIELD FieldData  1
TIME 1 1 double
       72000.00000
POINTS      256 float
      0.00000000E+00  3.00000000E+00  1.00000013E+00
      1.00000000E+00  3.00000000E+00  1.00000013E+00
      2.00000000E+00  3.00000000E+00  1.00000013E+00
      3.00000000E+00  3.00000000E+00  1.00000013E+00
      0.00000000E+00  2.00000000E+00  1.00000013E+00
      1.00000000E+00  2.00000000E+00  1.00000009E+00
      2.00000000E+00  2.00000000E+00  1.00000007E+00
      3.00000000E+00  2.00000000E+00  1.00000009E+00
      0.00000000E+00  1.00000000E+00  1.00000013E+00
      1.00000000E+00  1.00000000E+00  1.00000007E+00
      2.00000000E+00  1.00000000E+00  9.99666667E-01
      3.00000000E+00  1.00000000E+00  9.99666667E-01
      0.00000000E+00  0.00000000E+00  1.00000013E+00
      1.00000000E+00  0.00000000E+00  1.00000009E+00
      2.00000000E+00  0.00000000E+00  9.99666667E-01
      3.00000000E+00  0.00000000E+00  9.99000000E-01
      0.00000000E+00  3.00000000E+00  9.94000130E-01
      1.00000000E+00  3.00000000E+00  9.94000130E-01
      2.00000000E+00  3.00000000E+00  9.94000130E-01
      3.00000000E+00  3.00000000E+00  9.94000130E-01
      0.00000000E+00  2.00000000E+00  9.94000130E-01
      1.00000000E+00  2.00000000E+00  9.94000087E-01
      2.00000000E+00  2.00000000E+00  9.94000065E-01
      3.00000000E+00  2.00000000E+00  9.94000087E-01
      0.00000000E+00  1.00000000E+00  9.94000130E-01
      1.00000000E+00  1.00000000E+00  9.94000065E-01
      2.00000000E+00  1.00000000E+00  9.93666667E-01
      3.00000000E+00  1.00000000E+00  9.93666667E-01
      0.00000000E+00  0.00000000E+00  9.94000130E-01
      1.00000000E+00  0.00000000E+00  9.94000087E-01
      2.00000000E+00  0.00000000E+00  9.93666667E-01
      3.00000000E+00  0.00000000E+00  9.93000000E-01
      0.00000000E+00  3.00000000E+00  9.82000130E-01
      1.00000000E+00  3.00000000E+00  9.82000130E-01
      2.00000000E+00  3.00000000E+00  9.82000130E-01
      3.00000000E+00  3.00000000E+00  9.82000130E-01
      0.00000000E+00  2.00000000E+00  9.82000130E-01
      1.00000000E+00  2.00000000E+00  9.82000087E-01
      2.00000000E+00  2.00000000E+00  9.82000065E-01
      3.00000000E+00  2.00000000E+00  9.82000087E-01
      0.00000000E+00  1.00000000E+00  9.82000130E-01
      1.00000000E+00  1.00000000E+00  9.82000065E-01
      2.00000000E+00  1.00000000E+00  9.81666667E-01
      3.00000000E+00  1.00000000E+00  9.81666667E-01
      0.00000000E+00  0.00000000E+00  9.82000130E-01
      1.00000000E+00  0.00000000E+00  9.82000087E-01
      2.00000000E+00  0.00000000E+00  9.81666667E-01
      3.00000000E+00  0.00000000E+00  9.81000000E-01
      0.00000000E+00  3.00000000E+00  9.64000130E-01
      1.00000000E+00  3.00000000E+00  9.64000130E-01
      2.00000000E+00  3.00000000E+00  9.64000130E-01
      3.00000000E+00  3.00000000E+00  9.64000130E-01
      0.00000000E+00  2.00000000E+00  9.64000130E-01
      1.00000000E+00  2.00000000E+00  9.64000087E-01
      2.00000000E+00  2.00000000E+00  9.64000065E-01
      3.00000000E+00  2.00000000E+00  9.64000087E-01
      0.00000000E+00  1.00000000E+00  9.64000130E-01
      1.00000000E+00  1.00000000E+00  9.64000065E-01
      2.00000000E+00  1.00000000E+00  9.63666667E-01
      3.00000000E+00  1.00000000E+00  9.63666667E-01
      0.00000000E+00  0.00000000E+00  9.64000130E-01
      1.00000000E+00  0.00000000E+00  9.64000087E-01
      2.00000000E+00  0.00000000E+00  9.63666667E-01
      3.00000000E+00  0.00000000E+00  9.63000000E-01
      0.00000000E+00  3.00000000E+00  9.40000130E-01
      1.00000000E+00  3.00000000E+00  9.40000130E-01
      2.00000000E+00  3.00000000E+00  9.40000130E-01
      3.00000000E+00  3.00000000E+00  9.40000130E-01
      0.00000000E+00  2.00000000E+00  9.40000130E-01
      1.00000000E+00  2.00000000E+00  9.40000087E-01
      2.00000000E+00  2.00000000E+00  9.40000065E-01
      3.00000000E+00  2.00000000E+00  9.40000087E-01
      0.00000000E+00  1.00000000E+00  9.40000130E-01
      1.00000000E+00  1.00000000E+00  9.40000065E-01
      2.00000000E+00  1.00000000E+00  9.39666667E-01
      3.00000000E+00  1.00000000E+00  9.39666667E-01
      0.00000000E+00  0.00000000E+00  9.40000130E-01
      1.00000000E+00  0.00000000E+00  9.40000087E-01
      2.00000000E+00  0.00000000E+00  9.39666667E-01
      3.00000000E+00  0.00000000E+00  9.39000000E-01
      0.00000000E+00  3.00000000E+00  9.10000130E-01
      1.00000000E+00  3.00000000E+00  9.10000130E-01
      2.00000000E+00  3.00000000E+00  9.10000130E-01
      3.00000000E+00  3.00000000E+00  9.10000130E-01
      0.00000000E+00  2.00000000E+00  9.10000130E-01
      1.00000000E+00  2.00000000E+00  9.10000087E-01
      2.00000000E+00  2.00000000E+00  9.10000065E-01
      3.00000000E+00  2.00000000E+00  9.10000087E-01
      0.00000000E+00  1.00000000E+00  9.10000130E-01
      1.00000000E+00  1.00000000E+00  9.10000065E-01
      2.00000000E+00  1.00000000E+00  9.09666667E-01
      3.00000000E+00  1.00000000E+00  9.09666667E-01
      0.00000000E+00  0.00000000E+00  9.10000130E-01
      1.00000000E+00  0.00000000E+00  9.10000087E-01
      2.00000000E+00  0.00000000E+00  9.09666667E-01
      3.00000000E+00  0.00000000E+00  9.09000000E-01
      0.00000000E+00  3.00000000E+00  8.80000130E-01
      1.00000000E+00  3.00000000E+00  8.80000130E-01
      2.00000000E+00  3.00000000E+00  8.80000130E-01
      3.00000000E+00  3.00000000E+00  8.80000130E-01
      0.00000000E+00  2.00000000E+00  8.80000130E-01
      1.00000000E+00  2.00000000E+00  8.80000087E-01
      2.00000000E+00  2.00000000E+00  8.80000065E-01
      3.00000000E+00  2.00000000E+00  8.80000087E-01
      0.00000000E+00  1.00000000E+00  8.80000130E-01
      1.00000000E+00  1.00000000E+00  8.80000065E-01
      2.00000000E+00  1.00000000E+00  8.79666667E-01
      3.00000000E+00  1.00000000E+00  8.79666667E-01
      0.00000000E+00  0.00000000E+00  8.80000130E-01
      1.00000000E+00  0.00000000E+00  8.80000087E-01
      2.00000000E+00  0.00000000E+00  8.79666667E-01
      3.00000000E+00  0.00000000E+00  8.79000000E-01
      0.00000000E+00  3.00000000E+00  8.20000130E-01
      1.00000000E+00  3.00000000E+00  8.20000130E-01
      2.00000000E+00  3.00000000E+00  8.20000130E-01
      3.00000000E+00  3.00000000E+00  8.20000130E-01
      0.00000000E+00  2.00000000E+00  8.20000130E-01
      1.00000000E+00  2.00000000E+00  8.20000087E-01
      2.00000000E+00  2.00000000E+00  8.20000065E-01
      3.00000000E+00  2.00000000E+00  8.20000087E-01
      0.00000000E+00  1.00000000E+00  8.20000130E-01
      1.00000000E+00  1.00000000E+00  8.20000065E-01
      2.00000000E+00  1.00000000E+00  8.19666667E-01
      3.00000000E+00  1.00000000E+00  8.19666667E-01
      0.00000000E+00  0.00000000E+00  8.20000130E-01
      1.00000000E+00  0.00000000E+00  8.20000087E-01
      2.00000000E+00  0.00000000E+00  8.19666667E-01
      3.00000000E+00  0.00000000E+00  8.19000000E-01
      0.00000000E+00  3.00000000E+00  7.60000130E-01
      1.00000000E+00  3.00000000E+00  7.60000130E-01
      2.00000000E+00  3.00000000E+00  7.60000130E-01
      3.00000000E+00  3.00000000E+00  7.60000130E-01
      0.00000000E+00  2.00000000E+00  7.60000130E-01
      1.00000000E+00  2.00000000E+00  7.60000087E-01
      2.00000000E+00  2.00000000E+00  7.60000065E-01
      3.00000000E+00  2.00000000E+00  7.60000087E-01
      0.00000000E+00  1.00000000E+00  7.60000130E-01
      1.00000000E+00  1.00000000E+00  7.60000065E-01
      2.00000000E+00  1.00000000E+00  7.59666667E-01
      3.00000000E+00  1.00000000E+00  7.59666667E-01
      0.00000000E+00  0.00000000E+00  7.60000130E-01
      1.00000000E+00  0.00000000E+00  7.60000087E-01
      2.00000000E+00  0.00000000E+00  7.59666667E-01
      3.00000000E+00  0.00000000E+00  7.59000000E-01
      0.00000000E+00  3.00000000E+00  6.10000130E-01
      1.00000000E+00  3.00000000E+00  6.10000130E-01
      2.00000000E+00  3.00000000E+00  6.10000130E-01
      3.00000000E+00  3.00000000E+00  6.10000130E-01
      0.00000000E+00  2.00000000E+00  6.10000130E-01
      1.00000000E+00  2.00000000E+00  6.10000087E-01
      2.00000000E+00  2.00000000E+00  6.10000065E-01
      3.00000000E+00  2.00000000E+00  6.10000087E-01
      0.00000000E+00  1.00000000E+00  6.10000130E-01
      1.00000000E+00  1.00000000E+00  6.10000065E-01
      2.00000000E+00  1.00000000E+00  6.09666667E-01
      3.00000000E+00  1.00000000E+00  6.09666667E-01
      0.00000000E+00  0.00000000E+00  6.10000130E-01
      1.00000000E+00  0.00000000E+00  6.10000087E-01
      2.00000000E+00  0.00000000E+00  6.09666667E-01
      3.00000000E+00  0.00000000E+00  6.09000000E-01
      0.00000000E+00  3.00000000E+00  4.60000130E-01
      1.00000000E+00  3.00000000E+00  4.60000130E-01
      2.00000000E+00  3.00000000E+00  4.60000130E-01
      3.00000000E+00  3.00000000E+00  4.60000130E-01
      0.00000000E+00  2.00000000E+00  4.60000130E-01
      1.00000000E+00  2.00000000E+00  4.60000087E-01
      2.00000000E+00  2.00000000E+00  4.60000065E-01
      3.00000000E+00  2.00000000E+00  4.60000087E-01
      0.00000000E+00  1.00000000E+00  4.60000130E-01
      1.00000000E+00  1.00000000E+00  4.60000065E-01
      2.00000000E+00  1.00000000E+00  4.59666667E-01
      3.00000000E+00  1.00000000E+00  4.59666667E-01
      0.00000000E+00  0.00000000E+00  4.60000130E-01
      1.00000000E+00  0.00000000E+00  4.60000087E-01
      2.00000000E+00  0.00000000E+00  4.59666667E-01
      3.00000000E+00  0.00000000E+00  4.59000000E-01
      0.00000000E+00  3.00000000E+00  1.60000130E-01
      1.00000000E+00  3.00000000E+00  1.60000130E-01
      2.00000000E+00  3.00000000E+00  1.60000130E-01
      3.00000000E+00  3.00000000E+00  1.60000130E-01
      0.00000000E+00  2.00000000E+00  1.60000130E-01
      1.00000000E+00  2.00000000E+00  1.60000087E-01
      2.00000000E+00  2.00000000E+00  1.60000065E-01
      3.00000000E+00  2.00000000E+00  1.60000087E-01
      0.00000000E+00  1.00000000E+00  1.60000130E-01
[...]
POINT_DATA      256
SCALARS pressure float
LOOKUP_TABLE default
  -150.00006423650305     
  -150.00004754175728     
  -150.00004742187286     
  -150.00002936185643     
  -150.00004754175728     
  -150.00002936442911     
  -150.00002936286754     
  -150.00001754203797     
  -150.00004742187286     
  -150.00002936286754     
  -150.00002936115382     
  -150.00001756141080     
  -150.00002936185643     
  -150.00001754203797     
  -150.00001756141080     
  -149.99994884063324     
  -150.00000006852821     
  -150.00000004664844     
  -150.00000004647328     
  -150.00000002359502     
  -150.00000004664844     
  -150.00000002360090     
  -150.00000002356870     
  -150.00000000263861     
  -150.00000004647328     
  -150.00000002356870     
  -150.00000002356006     
  -150.00000000265911     
  -150.00000002359502     
  -150.00000000263861     
  -150.00000000265911     
  -149.99999987570976     
  -149.99999999999346     
  -149.99999999998022     
  -149.99999999998616     
  -149.99999999970308     
  -149.99999999998022     
  -149.99999999970365     
  -149.99999999970785     
  -149.99999999627437     
  -149.99999999998616     
  -149.99999999970785     
  -149.99999999971496     
  -149.99999999627198     
  -149.99999999970308     
  -149.99999999627437     
  -149.99999999627198     
  -149.99999998815255     
  -149.99999999994068     
  -149.99999999981944     
  -149.99999999981944     
  -149.99999999874944     
  -149.99999999981944     
  -149.99999999874569     
  -149.99999999874581     
  -149.99999999252364     
  -149.99999999981944     
  -149.99999999874581     
  -149.99999999874581     
  -149.99999999250900     
  -149.99999999874944     
  -149.99999999252364     
  -149.99999999250900     
  -149.99999998285523     
  -149.99999999907541     
  -149.99999999802091     
  -149.99999999802699     
  -149.99999999172289     
  -149.99999999802091     
  -149.99999999172286     
  -149.99999999171922     
  -149.99999996877028     
  -149.99999999802699     
  -149.99999999171922     
  -149.99999999171922     
  -149.99999996877159     
  -149.99999999172289     
  -149.99999996877028     
  -149.99999996877159     
  -149.99999994145506     
  -149.99999992185394     
  -149.99999992170228     
  -149.99999992169100     
  -149.99999992140428     
  -149.99999992170228     
  -149.99999992141844     
  -149.99999992139632     
  -149.99999991887074     
  -149.99999992169100     
  -149.99999992139632     
  -149.99999992135091     
  -149.99999991876942     
  -149.99999992140428     
  -149.99999991887074     
  -149.99999991876942     
  -149.99999991377928     
  -149.99999999841518     
  -149.99999998770727     
  -149.99999998768641     
  -149.99999932329081     
  -149.99999998770727     
  -149.99999932391751     
  -149.99999932346344     
  -149.99998229714436     
  -149.99999998768641     
  -149.99999932346344     
  -149.99999932296959     
  -149.99998229295781     
  -149.99999932329081     
  -149.99998229714649     
  -149.99998229294275     
  -149.99992835213516     
  -149.99996319660926     
  -149.99996315313305     
  -149.99996314246752     
  -149.99996302045125     
  -149.99996315312856     
  -149.99996303612107     
  -149.99996301220585     
  -149.99996218199843     
  -149.99996314246752     
  -149.99996301220585     
  -149.99996297657231     
  -149.99996212087632     
  -149.99996302046836     
  -149.99996218199843     
  -149.99996212087632     
  -149.99996009357997     
  -149.99997843845202     
  -149.99995915298970     
  -149.99995909921077     
  -149.99856343259168     
  -149.99995915298970     
  -149.99856421760495     
  -149.99856288978251     
  -149.96815391952947     
  -149.99995909921077     
  -149.99856288978251     
  -149.99856152164989     
  -149.96814233740506     
  -149.99856343259168     
  -149.96815391951228     
  -149.96814233740506     
  -149.88571036973190     
  -147.00222303968621     
  -146.99677339062589     
  -146.99563948251128     
  -146.97459204835818     
  -146.99677339062268     
  -146.97525746550235     
  -146.96921939468402     
  -146.90813075790192     
  -146.99563948250903     
  -146.96921939468402     
  -146.95948229050265     
  -146.88332690812274     
  -146.97459204832958     
  -146.90813075788046     
  -146.88332690813377     
  -146.80234970327120     
  -84.258182543573042     
  -61.407109111970549     
  -61.370890756046428     
  -34.015895157998813     
  -61.407109111975501     
  -34.047093957185190     
  -34.028462892988145     
  -21.692160198225398     
  -61.370890756040033     
  -34.028462892986333     
  -34.010230125543927     
  -21.688267996196565     
  -34.015895157993747     
  -21.692160198225107     
  -21.688267996195005     
  -18.141095946146461     
  -3.2270386812180254     
  -3.2261641813238611     
  -3.2261830051799478     
  -3.2229079339615017     
  -3.2261641813239010     
  -3.2228981118503341     
  -3.2229092377756503     
  -3.2202950659358960     
  -3.2261830051798337     
  -3.2229092377756503     
  -3.2229188422601380     
  -3.2203014178158527     
  -3.2229079339613893     
  -3.2202950659358995     
  -3.2203014178159557     
  -3.2192852433699417     
  -2.0009872002492552     
  -2.0009979542614533     
  -2.0009980461286476     
  -2.0010152508750276     
  -2.0009979542614533     
  -2.0010151758773813     
  -2.0010152790252453     
  -2.0010287945226204     
  -2.0009980461286476     
  -2.0010152790252453     
  -2.0010151572693196     
  -2.0010288040389383     
  -2.0010152508750276     
  -2.0010287945226204     
  -2.0010288040389383     
  -2.0010343374869506     
  -2.0000003833105491     
  -2.0000003666787851     
  -2.0000003669255464     
  -2.0000003329404281     
  -2.0000003666787851     
  -2.0000003327191593     
  -2.0000003329011906     
  -2.0000002984364835     
  -2.0000003669255464     
  -2.0000003329011906     
  -2.0000003328914664     
  -2.0000002984619734     
  -2.0000003329404281     
  -2.0000002984364835     
  -2.0000002984619734     
  -2.0000002809140143     
  -1.9999999248459162     
  -1.9999999248263554     
  -1.9999999259125711     
  -1.9999999188247808     
  -1.9999999248263554     
  -1.9999999177602243     
  -1.9999999220556177     
  -1.9999998943852815     
  -1.9999999259125711     
  -1.9999999220556177     
  -1.9999999284307477     
  -1.9999999070305139     
  -1.9999999188247808     
  -1.9999998943852815     
  -1.9999999070305139     
  -1.9999998789115829     
  -1.9995918177210981     
  -1.9995408017547420     
  -1.9995407795965603     
  -1.9993878075259008     
  -1.9995408017547420     
  -1.9993878404784147     
  -1.9993877859625004     
  -1.9990820120414794     
  -1.9995407795965603     
  -1.9993877859625004     
  -1.9993877271967451     
  -1.9990819134742186     
  -1.9993878075259008     
  -1.9990820120414794     
  -1.9990819134742186     
  -1.9987761734313412     
SCALARS saturation float
LOOKUP_TABLE default
  0.28746144249668215     
  0.28746144325102724     
  0.28746144325644418     
  0.28746144407247859     
  0.28746144325102724     
  0.28746144407236229     
  0.28746144407243290     
  0.28746144460655237     
  0.28746144325644418     
  0.28746144407243290     
  0.28746144407251029     
  0.28746144460567702     
  0.28746144407247859     
  0.28746144460655237     
  0.28746144460567702     
  0.28746144771079873     
  0.28746144539608592     
  0.28746144539707447     
  0.28746144539708240     
  0.28746144539811619     
  0.28746144539707447     
  0.28746144539811563     
  0.28746144539811713     
  0.28746144539906304     
  0.28746144539708240     
  0.28746144539811713     
  0.28746144539811752     
  0.28746144539906210     
  0.28746144539811619     
  0.28746144539906304     
  0.28746144539906210     
  0.28746144540479834     
  0.28746144539918267     
  0.28746144539918317     
  0.28746144539918289     
  0.28746144539919571     
  0.28746144539918317     
  0.28746144539919544     
  0.28746144539919527     
  0.28746144539935059     
  0.28746144539918289     
  0.28746144539919527     
  0.28746144539919494     
  0.28746144539935070     
  0.28746144539919571     
  0.28746144539935059     
  0.28746144539935070     
  0.28746144539971769     
  0.28746144539918506     
  0.28746144539919044     
  0.28746144539919044     
  0.28746144539923879     
  0.28746144539919044     
  0.28746144539923874     
  0.28746144539923874     
  0.28746144539952007     
  0.28746144539919044     
  0.28746144539923874     
  0.28746144539923874     
  0.28746144539952073     
  0.28746144539923879     
  0.28746144539952007     
  0.28746144539952073     
  0.28746144539995705     
  0.28746144539922414     
  0.28746144539927171     
  0.28746144539927143     
  0.28746144539955631     
  0.28746144539927171     
  0.28746144539955604     
  0.28746144539955620     
  0.28746144540059337     
  0.28746144539927143     
  0.28746144539955620     
  0.28746144539955620     
  0.28746144540059332     
  0.28746144539955631     
  0.28746144540059337     
  0.28746144540059332     
  0.28746144540182766     
  0.28746144540271334     
  0.28746144540272012     
  0.28746144540272062     
  0.28746144540273361     
  0.28746144540272012     
  0.28746144540273272     
  0.28746144540273372     
  0.28746144540284807     
  0.28746144540272062     
  0.28746144540273372     
  0.28746144540273577     
  0.28746144540285262     
  0.28746144540273361     
  0.28746144540284807     
  0.28746144540285262     
  0.28746144540307822     
  0.28746144539925395     
  0.28746144539973773     
  0.28746144539973867     
  0.28746144542975915     
  0.28746144539973773     
  0.28746144542973057     
  0.28746144542975111     
  0.28746144619907887     
  0.28746144539973867     
  0.28746144542975111     
  0.28746144542977342     
  0.28746144619926806     
  0.28746144542975915     
  0.28746144619907882     
  0.28746144619926872     
  0.28746144863656398     
  0.28746144706212934     
  0.28746144706409371     
  0.28746144706457566     
  0.28746144707008892     
  0.28746144706409393     
  0.28746144706938065     
  0.28746144707046123     
  0.28746144710797406     
  0.28746144706457566     
  0.28746144707046123     
  0.28746144707207133     
  0.28746144711073585     
  0.28746144707008814     
  0.28746144710797406     
  0.28746144711073585     
  0.28746144720233857     
  0.28746144637343252     
  0.28746144724483869     
  0.28746144724726869     
  0.28746151031036771     
  0.28746144724483869     
  0.28746151027489647     
  0.28746151033489442     
  0.28746288457481706     
  0.28746144724726869     
  0.28746151033489442     
  0.28746151039671380     
  0.28746288509831308     
  0.28746151031036771     
  0.28746288457481783     
  0.28746288509831308     
  0.28746661240515586     
  0.28759890786574760     
  0.28759916147847958     
  0.28759921424938900     
  0.28760019388309066     
  0.28759916147847975     
  0.28760016290871865     
  0.28760044398118978     
  0.28760328860846407     
  0.28759921424938911     
  0.28760044398118978     
  0.28760089727934951     
  0.28760444410691260     
  0.28760019388309199     
  0.28760328860846507     
  0.28760444410691210     
  0.28760821845033768     
  0.29193807098169772     
  0.29494735201059868     
  0.29495338307268371     
  0.30188472652409698     
  0.29494735201059791     
  0.30187243355576354     
  0.30187977259902310     
  0.30858801731369151     
  0.29495338307268476     
  0.30187977259902377     
  0.30188696042925428     
  0.30859097734115903     
  0.30188472652409898     
  0.30858801731369173     
  0.30859097734116026     
  0.31166140268442333     
  0.35885074144632795     
  0.35886146707622030     
  0.35886123615938903     
  0.35890144183821676     
  0.35886146707621980     
  0.35890156250673799     
  0.35890142582038398     
  0.35893356086583361     
  0.35886123615939042     
  0.35890142582038398     
  0.35890130782608021     
  0.35893348273844239     
  0.35890144183821815     
  0.35893356086583361     
  0.35893348273844117     
  0.35894598442454778     
  0.37998803961164168     
  0.37998777505214026     
  0.37998777279212398     
  0.37998734954241520     
  0.37998777505214026     
  0.37998735138740181     
  0.37998734884990260     
  0.37998701636221788     
  0.37998777279212398     
  0.37998734884990260     
  0.37998735184517130     
  0.37998701612811303     
  0.37998734954241520     
  0.37998701636221788     
  0.37998701612811303     
  0.37998688000359560     
  0.38001232511141325     
  0.38001232552086672     
  0.38001232551479175     
  0.38001232635146376     
  0.38001232552086672     
  0.38001232635691062     
  0.38001232635242926     
  0.38001232720090838     
  0.38001232551479175     
  0.38001232635242926     
  0.38001232635266868     
  0.38001232720028083     
  0.38001232635146376     
  0.38001232720090838     
  0.38001232720028083     
  0.38001232763229020     
  0.38001233639825094     
  0.38001233639873239     
  0.38001233637199106     
  0.38001233654648392     
  0.38001233639873239     
  0.38001233657269157     
  0.38001233646694421     
  0.38001233714815447     
  0.38001233637199106     
  0.38001233646694421     
  0.38001233630999631     
  0.38001233683684432     
  0.38001233654648392     
  0.38001233714815447     
  0.38001233683684432     
  0.38001233752909819     
  0.38002238498979157     
  0.38002364133706501     
  0.38002364188275473     
  0.38002740933696300     
  0.38002364133706501     
  0.38002740852535066     
  0.38002740986806405     
  0.38003494184202480     
  0.38002364188275473     
  0.38002740986806405     
  0.38002741131545004     
  0.38003494427025253     
  0.38002740933696300     
  0.38003494184202480     
  0.38003494427025253     
  0.38004247708708616     
CELL_DATA      810
SCALARS permeability float
LOOKUP_TABLE default
   1.8799999999999999E-004
   1.8799999999999999E-004
   1.8799999999999999E-004
   1.8799999999999999E-004
   1.8799999999999999E-004
   1.8799999999999999E-004
   1.8799999999999999E-004
   1.8799999999999999E-004
   1.8799999999999999E-004
   1.8799999999999999E-004
   1.8799999999999999E-004
   1.8799999999999999E-004
   1.8799999999999999E-004
   1.8799999999999999E-004
   1.8799999999999999E-004
   1.8799999999999999E-004
   1.8799999999999999E-004
   1.8799999999999999E-004
   1.8799999999999999E-004
   1.8799999999999999E-004
   1.8799999999999999E-004
   1.8799999999999999E-004
   1.8799999999999999E-004
   1.8799999999999999E-004
   1.8799999999999999E-004
   1.8799999999999999E-004
   1.8799999999999999E-004
   1.8799999999999999E-004
   1.8799999999999999E-004
   1.8799999999999999E-004
   1.8799999999999999E-004
   1.8799999999999999E-004
   1.8799999999999999E-004
   1.8799999999999999E-004
   1.8799999999999999E-004
   1.8799999999999999E-004
   1.8799999999999999E-004
   1.8799999999999999E-004
   1.8799999999999999E-004
   1.8799999999999999E-004
   1.8799999999999999E-004
   1.8799999999999999E-004
   1.8799999999999999E-004
   1.8799999999999999E-004
   1.8799999999999999E-004
   1.8799999999999999E-004
   1.8799999999999999E-004
   1.8799999999999999E-004
   1.8799999999999999E-004
   1.8799999999999999E-004
   1.8799999999999999E-004
   1.8799999999999999E-004
   1.8799999999999999E-004
   1.8799999999999999E-004
   1.8799999999999999E-004
   1.8799999999999999E-004
   1.8799999999999999E-004
   1.8799999999999999E-004
   1.8799999999999999E-004
   1.8799999999999999E-004
   1.8799999999999999E-004
   1.8799999999999999E-004
   1.8799999999999999E-004
   1.8799999999999999E-004
   1.8799999999999999E-004
   1.8799999999999999E-004
   1.8799999999999999E-004
   1.8799999999999999E-004
   1.8799999999999999E-004
   1.8799999999999999E-004
   1.8799999999999999E-004
   1.8799999999999999E-004
   1.8799999999999999E-004
   1.8799999999999999E-004
   1.8799999999999999E-004
   1.8799999999999999E-004
   1.8799999999999999E-004
   1.8799999999999999E-004
   1.8799999999999999E-004
   1.8799999999999999E-004
   1.8799999999999999E-004
   1.8799999999999999E-004
   1.8799999999999999E-004
   1.8799999999999999E-004
   1.8799999999999999E-004
   1.8799999999999999E-004
   1.8799999999999999E-004
   1.8799999999999999E-004
   1.8799999999999999E-004
   1.8799999999999999E-004
   1.8799999999999999E-004
   1.8799999999999999E-004
   1.8799999999999999E-004
   1.8799999999999999E-004
   1.8799999999999999E-004
   1.8799999999999999E-004
   1.8799999999999999E-004
   1.8799999999999999E-004
   1.8799999999999999E-004
   1.8799999999999999E-004
   1.8799999999999999E-004
   1.8799999999999999E-004
   1.8799999999999999E-004
   1.8799999999999999E-004
   1.8799999999999999E-004
   1.8799999999999999E-004
   1.8799999999999999E-004
   1.8799999999999999E-004
   1.8799999999999999E-004
   1.8799999999999999E-004
   1.8799999999999999E-004
   1.8799999999999999E-004
   1.8799999999999999E-004
   1.8799999999999999E-004
   1.8799999999999999E-004
   1.8799999999999999E-004
   1.8799999999999999E-004
   1.8799999999999999E-004
   1.8799999999999999E-004
   1.8799999999999999E-004
   1.8799999999999999E-004
   1.8799999999999999E-004
   1.8799999999999999E-004
   1.8799999999999999E-004
   1.8799999999999999E-004
   1.8799999999999999E-004
   1.8799999999999999E-004
   1.8799999999999999E-004
   1.8799999999999999E-004
   1.8799999999999999E-004
   1.8799999999999999E-004
   1.8799999999999999E-004
   1.8799999999999999E-004
   1.8799999999999999E-004
   1.8799999999999999E-004
   1.8799999999999999E-004
   1.8799999999999999E-004
   1.8799999999999999E-004
   1.8799999999999999E-004
   1.8799999999999999E-004
   1.8799999999999999E-004
   1.8799999999999999E-004
   1.8799999999999999E-004
   1.8799999999999999E-004
   1.8799999999999999E-004
   1.8799999999999999E-004
   1.8799999999999999E-004
   1.8799999999999999E-004
   1.8799999999999999E-004
   1.8799999999999999E-004
   1.8799999999999999E-004
   1.8799999999999999E-004
   1.8799999999999999E-004
   1.8799999999999999E-004
   1.8799999999999999E-004
   1.8799999999999999E-004
   1.8799999999999999E-004
   1.8799999999999999E-004
   1.8799999999999999E-004
   1.8799999999999999E-004
   1.8799999999999999E-004
   1.8799999999999999E-004
   1.8799999999999999E-004
   1.8799999999999999E-004
   1.8799999999999999E-004
   1.8799999999999999E-004
   1.8799999999999999E-004
   1.8799999999999999E-004
   1.8799999999999999E-004
   1.8799999999999999E-004
   1.8799999999999999E-004
   1.8799999999999999E-004
   1.8799999999999999E-004
   1.8799999999999999E-004
   1.8799999999999999E-004
   1.8799999999999999E-004
   1.8799999999999999E-004
   1.8799999999999999E-004
   1.8799999999999999E-004
   1.8799999999999999E-004
   1.8799999999999999E-004
   1.8799999999999999E-004
   1.8799999999999999E-004
   1.8799999999999999E-004
   1.8799999999999999E-004
   1.8799999999999999E-004
   1.8799999999999999E-004
   1.8799999999999999E-004
   1.8799999999999999E-004
   1.8799999999999999E-004
   1.8799999999999999E-004
   1.8799999999999999E-004
   1.8799999999999999E-004
   1.8799999999999999E-004
   1.8799999999999999E-004
   1.8799999999999999E-004
   1.8799999999999999E-004
   1.8799999999999999E-004
   1.8799999999999999E-004
   1.8799999999999999E-004
   1.8799999999999999E-004
   1.8799999999999999E-004
   1.8799999999999999E-004
   1.8799999999999999E-004
   1.8799999999999999E-004
   1.8799999999999999E-004
   1.8799999999999999E-004
   1.8799999999999999E-004
   1.8799999999999999E-004
   1.8799999999999999E-004
   1.8799999999999999E-004
   1.8799999999999999E-004
   1.8799999999999999E-004
   1.8799999999999999E-004
   1.8799999999999999E-004
   1.8799999999999999E-004
   1.8799999999999999E-004
   1.8799999999999999E-004
   1.8799999999999999E-004
   1.8799999999999999E-004
   1.8799999999999999E-004
   1.8799999999999999E-004